
     Program PWSCF v.6.7MaX starts on 15Nov2021 at 14:31:51 

     This program is part of the open-source Quantum ESPRESSO suite
     for quantum simulation of materials; please cite
         "P. Giannozzi et al., J. Phys.:Condens. Matter 21 395502 (2009);
         "P. Giannozzi et al., J. Phys.:Condens. Matter 29 465901 (2017);
          URL http://www.quantum-espresso.org", 
     in publications or presentations arising from this work. More details at
     http://www.quantum-espresso.org/quote

     Parallel version (MPI), running on    10 processors

     MPI processes distributed on     1 nodes
     R & G space division:  proc/nbgrp/npool/nimage =      10
     Waiting for input...
     Reading input from standard input
Warning: card &IONS ignored
Warning: card    !(DEFAULT)  USE BFGS QUASI-NEWTON ALGORITHM ignored
Warning: card / ignored

     Current dimensions of program PWSCF are:
     Max number of different atomic species (ntypx) = 10
     Max number of k-points (npk) =  40000
     Max angular momentum in pseudopotentials (lmaxx) =  3

     Atomic positions and unit cell read from directory:
     ./MoS2.save/
 
     file Mo.pbe-spn-kjpaw_psl.0.2.UPF: wavefunction(s)  4D renormalized
     file S.pbe-n-kjpaw_psl.0.1.UPF: wavefunction(s)  3P renormalized

     Subspace diagonalization in iterative solution of the eigenvalue problem:
     one sub-group per band group will be used
     scalapack distributed-memory algorithm (size of sub-group:  3*  3 procs)

     Message from routine setup:
     using ibrav=0 with symmetry is DISCOURAGED, use correct ibrav instead
 
     Parallelization info
     --------------------
     sticks:   dense  smooth     PW     G-vecs:    dense   smooth      PW
     Min         126      49     15                12692     3201     533
     Max         127      50     16                12705     3220     546
     Sum        1261     499    151               126991    32155    5351
 


     bravais-lattice index     =            0
     lattice parameter (alat)  =       5.9830  a.u.
     unit-cell volume          =     671.9051 (a.u.)^3
     number of atoms/cell      =            3
     number of atomic types    =            2
     number of electrons       =        26.00
     number of Kohn-Sham states=           30
     kinetic-energy cutoff     =      50.0000  Ry
     charge density cutoff     =     500.0000  Ry
     Exchange-correlation= SLA  PW   PBX  PBC
                           (   1   4   3   4   0   0   0)

     celldm(1)=   5.983000  celldm(2)=   0.000000  celldm(3)=   0.000000
     celldm(4)=   0.000000  celldm(5)=   0.000000  celldm(6)=   0.000000

     crystal axes: (cart. coord. in units of alat)
               a(1) = (   1.008068   0.000000   0.000000 )  
               a(2) = (  -0.504034   0.872904   0.000000 )  
               a(3) = (   0.000000   0.000000   3.565287 )  

     reciprocal axes: (cart. coord. in units 2 pi/alat)
               b(1) = (  0.991997  0.572800  0.000000 )  
               b(2) = (  0.000000  1.145601  0.000000 )  
               b(3) = (  0.000000  0.000000  0.280482 )  


     PseudoPot. # 1 for Mo read from file:
     ../Pseudo/Mo.pbe-spn-kjpaw_psl.0.2.UPF
     MD5 check sum: 99c4efbabb9e14294ed14bd31c5e2f8a
     Pseudo is Projector augmented-wave + core cor, Zval = 14.0
     Generated using "atomic" code by A. Dal Corso  v.5.0.2 svn rev. 9415
     Shape of augmentation charge: PSQ
     Using radial grid of 1229 points,  6 beta functions with: 
                l(1) =   0
                l(2) =   0
                l(3) =   1
                l(4) =   1
                l(5) =   2
                l(6) =   2
     Q(r) pseudized with 0 coefficients 


     PseudoPot. # 2 for S  read from file:
     ../Pseudo/S.pbe-n-kjpaw_psl.0.1.UPF
     MD5 check sum: 5138ed5699b2c5d2fdac7c35a9631f5b
     Pseudo is Projector augmented-wave + core cor, Zval =  6.0
     Generated using "atomic" code by A. Dal Corso  v.5.0.2 svn rev. 9415
     Shape of augmentation charge: PSQ
     Using radial grid of 1151 points,  4 beta functions with: 
                l(1) =   0
                l(2) =   0
                l(3) =   1
                l(4) =   1
     Q(r) pseudized with 0 coefficients 


     atomic species   valence    mass     pseudopotential
        Mo            14.00    95.94000     Mo( 1.00)
        S              6.00    32.06500     S ( 1.00)

      4 Sym. Ops. (no inversion) found


                                    s                        frac. trans.

      isym =  1     identity                                     

 cryst.   s( 1) = (     1          0          0      )
                  (     0          1          0      )
                  (     0          0          1      )

 cart.    s( 1) = (  1.0000000  0.0000000  0.0000000 )
                  (  0.0000000  1.0000000  0.0000000 )
                  (  0.0000000  0.0000000  1.0000000 )


      isym =  2     180 deg rotation - cart. axis [0,1,0]        

 cryst.   s( 2) = (    -1          0          0      )
                  (     1          1          0      )
                  (     0          0         -1      )

 cart.    s( 2) = ( -1.0000000  0.0000000  0.0000000 )
                  (  0.0000000  1.0000000  0.0000000 )
                  (  0.0000000  0.0000000 -1.0000000 )


      isym =  3     inv. 180 deg rotation - cart. axis [0,0,1]   

 cryst.   s( 3) = (     1          0          0      )
                  (     0          1          0      )
                  (     0          0         -1      )

 cart.    s( 3) = (  1.0000000  0.0000000  0.0000000 )
                  (  0.0000000  1.0000000  0.0000000 )
                  (  0.0000000  0.0000000 -1.0000000 )


      isym =  4     inv. 180 deg rotation - cart. axis [1,0,0]   

 cryst.   s( 4) = (    -1          0          0      )
                  (     1          1          0      )
                  (     0          0          1      )

 cart.    s( 4) = ( -1.0000000  0.0000000  0.0000000 )
                  (  0.0000000  1.0000000  0.0000000 )
                  (  0.0000000  0.0000000  1.0000000 )


   Cartesian axes

     site n.     atom                  positions (alat units)
         1           Mo  tau(   1) = (   0.0000000   0.0030498   0.0000000  )
         2           S   tau(   2) = (   0.0000000   0.5850225   0.4949137  )
         3           S   tau(   3) = (   0.0000000   0.5850225  -0.4949137  )

   Crystallographic axes

     site n.     atom                  positions (cryst. coord.)
         1           Mo  tau(   1) = (  0.0017469  0.0034938  0.0000000  )
         2           S   tau(   2) = (  0.3351012  0.6702023  0.1388145  )
         3           S   tau(   3) = (  0.3351012  0.6702023 -0.1388145  )

     number of k points=   101
                       cart. coord. in units 2pi/alat
        k(    1) = (   0.0000000   0.0000000   0.0000000), wk =   0.0198020
        k(    2) = (   0.0165333   0.0000000   0.0000000), wk =   0.0198020
        k(    3) = (   0.0330666   0.0000000   0.0000000), wk =   0.0198020
        k(    4) = (   0.0495998   0.0000000   0.0000000), wk =   0.0198020
        k(    5) = (   0.0661331   0.0000000   0.0000000), wk =   0.0198020
        k(    6) = (   0.0826664   0.0000000   0.0000000), wk =   0.0198020
        k(    7) = (   0.0991997   0.0000000   0.0000000), wk =   0.0198020
        k(    8) = (   0.1157330   0.0000000   0.0000000), wk =   0.0198020
        k(    9) = (   0.1322662   0.0000000   0.0000000), wk =   0.0198020
        k(   10) = (   0.1487995   0.0000000   0.0000000), wk =   0.0198020
        k(   11) = (   0.1653328   0.0000000   0.0000000), wk =   0.0198020
        k(   12) = (   0.1818661   0.0000000   0.0000000), wk =   0.0198020
        k(   13) = (   0.1983994   0.0000000   0.0000000), wk =   0.0198020
        k(   14) = (   0.2149327   0.0000000   0.0000000), wk =   0.0198020
        k(   15) = (   0.2314659   0.0000000   0.0000000), wk =   0.0198020
        k(   16) = (   0.2479992   0.0000000   0.0000000), wk =   0.0198020
        k(   17) = (   0.2645325   0.0000000   0.0000000), wk =   0.0198020
        k(   18) = (   0.2810658   0.0000000   0.0000000), wk =   0.0198020
        k(   19) = (   0.2975991   0.0000000   0.0000000), wk =   0.0198020
        k(   20) = (   0.3141323   0.0000000   0.0000000), wk =   0.0198020
        k(   21) = (   0.3306656   0.0000000   0.0000000), wk =   0.0198020
        k(   22) = (   0.3471989   0.0000000   0.0000000), wk =   0.0198020
        k(   23) = (   0.3637322   0.0000000   0.0000000), wk =   0.0198020
        k(   24) = (   0.3802655   0.0000000   0.0000000), wk =   0.0198020
        k(   25) = (   0.3967987   0.0000000   0.0000000), wk =   0.0198020
        k(   26) = (   0.4133320   0.0000000   0.0000000), wk =   0.0198020
        k(   27) = (   0.4298653   0.0000000   0.0000000), wk =   0.0198020
        k(   28) = (   0.4463986   0.0000000   0.0000000), wk =   0.0198020
        k(   29) = (   0.4629319   0.0000000   0.0000000), wk =   0.0198020
        k(   30) = (   0.4794651   0.0000000   0.0000000), wk =   0.0198020
        k(   31) = (   0.4959984   0.0000000   0.0000000), wk =   0.0198020
        k(   32) = (   0.5125317   0.0000000   0.0000000), wk =   0.0198020
        k(   33) = (   0.5290650   0.0000000   0.0000000), wk =   0.0198020
        k(   34) = (   0.5455983   0.0000000   0.0000000), wk =   0.0198020
        k(   35) = (   0.5621316   0.0000000   0.0000000), wk =   0.0198020
        k(   36) = (   0.5786648   0.0000000   0.0000000), wk =   0.0198020
        k(   37) = (   0.5951981   0.0000000   0.0000000), wk =   0.0198020
        k(   38) = (   0.6117314   0.0000000   0.0000000), wk =   0.0198020
        k(   39) = (   0.6282647   0.0000000   0.0000000), wk =   0.0198020
        k(   40) = (   0.6447980   0.0000000   0.0000000), wk =   0.0198020
        k(   41) = (   0.6613312   0.0000000   0.0000000), wk =   0.0198020
        k(   42) = (   0.6530646   0.0143200   0.0000000), wk =   0.0198020
        k(   43) = (   0.6447980   0.0286400   0.0000000), wk =   0.0198020
        k(   44) = (   0.6365313   0.0429600   0.0000000), wk =   0.0198020
        k(   45) = (   0.6282647   0.0572800   0.0000000), wk =   0.0198020
        k(   46) = (   0.6199980   0.0716001   0.0000000), wk =   0.0198020
        k(   47) = (   0.6117314   0.0859201   0.0000000), wk =   0.0198020
        k(   48) = (   0.6034648   0.1002401   0.0000000), wk =   0.0198020
        k(   49) = (   0.5951981   0.1145601   0.0000000), wk =   0.0198020
        k(   50) = (   0.5869315   0.1288801   0.0000000), wk =   0.0198020
        k(   51) = (   0.5786648   0.1432001   0.0000000), wk =   0.0198020
        k(   52) = (   0.5703982   0.1575201   0.0000000), wk =   0.0198020
        k(   53) = (   0.5621316   0.1718401   0.0000000), wk =   0.0198020
        k(   54) = (   0.5538649   0.1861601   0.0000000), wk =   0.0198020
        k(   55) = (   0.5455983   0.2004802   0.0000000), wk =   0.0198020
        k(   56) = (   0.5373316   0.2148002   0.0000000), wk =   0.0198020
        k(   57) = (   0.5290650   0.2291202   0.0000000), wk =   0.0198020
        k(   58) = (   0.5207984   0.2434402   0.0000000), wk =   0.0198020
        k(   59) = (   0.5125317   0.2577602   0.0000000), wk =   0.0198020
        k(   60) = (   0.5042651   0.2720802   0.0000000), wk =   0.0198020
        k(   61) = (   0.4959984   0.2864002   0.0000000), wk =   0.0198020
        k(   62) = (   0.4835985   0.2792402   0.0000000), wk =   0.0198020
        k(   63) = (   0.4711985   0.2720802   0.0000000), wk =   0.0198020
        k(   64) = (   0.4587985   0.2649202   0.0000000), wk =   0.0198020
        k(   65) = (   0.4463986   0.2577602   0.0000000), wk =   0.0198020
        k(   66) = (   0.4339986   0.2506002   0.0000000), wk =   0.0198020
        k(   67) = (   0.4215987   0.2434402   0.0000000), wk =   0.0198020
        k(   68) = (   0.4091987   0.2362802   0.0000000), wk =   0.0198020
        k(   69) = (   0.3967987   0.2291202   0.0000000), wk =   0.0198020
        k(   70) = (   0.3843988   0.2219602   0.0000000), wk =   0.0198020
        k(   71) = (   0.3719988   0.2148002   0.0000000), wk =   0.0198020
        k(   72) = (   0.3595989   0.2076402   0.0000000), wk =   0.0198020
        k(   73) = (   0.3471989   0.2004801   0.0000000), wk =   0.0198020
        k(   74) = (   0.3347989   0.1933201   0.0000000), wk =   0.0198020
        k(   75) = (   0.3223990   0.1861601   0.0000000), wk =   0.0198020
        k(   76) = (   0.3099990   0.1790001   0.0000000), wk =   0.0198020
        k(   77) = (   0.2975991   0.1718401   0.0000000), wk =   0.0198020
        k(   78) = (   0.2851991   0.1646801   0.0000000), wk =   0.0198020
        k(   79) = (   0.2727991   0.1575201   0.0000000), wk =   0.0198020
        k(   80) = (   0.2603992   0.1503601   0.0000000), wk =   0.0198020
        k(   81) = (   0.2479992   0.1432001   0.0000000), wk =   0.0198020
        k(   82) = (   0.2355993   0.1360401   0.0000000), wk =   0.0198020
        k(   83) = (   0.2231993   0.1288801   0.0000000), wk =   0.0198020
        k(   84) = (   0.2107993   0.1217201   0.0000000), wk =   0.0198020
        k(   85) = (   0.1983994   0.1145601   0.0000000), wk =   0.0198020
        k(   86) = (   0.1859994   0.1074001   0.0000000), wk =   0.0198020
        k(   87) = (   0.1735994   0.1002401   0.0000000), wk =   0.0198020
        k(   88) = (   0.1611995   0.0930801   0.0000000), wk =   0.0198020
        k(   89) = (   0.1487995   0.0859201   0.0000000), wk =   0.0198020
        k(   90) = (   0.1363996   0.0787601   0.0000000), wk =   0.0198020
        k(   91) = (   0.1239996   0.0716001   0.0000000), wk =   0.0198020
        k(   92) = (   0.1115996   0.0644400   0.0000000), wk =   0.0198020
        k(   93) = (   0.0991997   0.0572800   0.0000000), wk =   0.0198020
        k(   94) = (   0.0867997   0.0501200   0.0000000), wk =   0.0198020
        k(   95) = (   0.0743998   0.0429600   0.0000000), wk =   0.0198020
        k(   96) = (   0.0619998   0.0358000   0.0000000), wk =   0.0198020
        k(   97) = (   0.0495998   0.0286400   0.0000000), wk =   0.0198020
        k(   98) = (   0.0371999   0.0214800   0.0000000), wk =   0.0198020
        k(   99) = (   0.0247999   0.0143200   0.0000000), wk =   0.0198020
        k(  100) = (   0.0124000   0.0071600   0.0000000), wk =   0.0198020
        k(  101) = (   0.0000000   0.0000000   0.0000000), wk =   0.0198020

                       cryst. coord.
        k(    1) = (   0.0000000   0.0000000   0.0000000), wk =   0.0198020
        k(    2) = (   0.0166667  -0.0083333   0.0000000), wk =   0.0198020
        k(    3) = (   0.0333333  -0.0166667   0.0000000), wk =   0.0198020
        k(    4) = (   0.0500000  -0.0250000   0.0000000), wk =   0.0198020
        k(    5) = (   0.0666667  -0.0333333   0.0000000), wk =   0.0198020
        k(    6) = (   0.0833333  -0.0416667   0.0000000), wk =   0.0198020
        k(    7) = (   0.1000000  -0.0500000   0.0000000), wk =   0.0198020
        k(    8) = (   0.1166667  -0.0583333   0.0000000), wk =   0.0198020
        k(    9) = (   0.1333333  -0.0666667   0.0000000), wk =   0.0198020
        k(   10) = (   0.1500000  -0.0750000   0.0000000), wk =   0.0198020
        k(   11) = (   0.1666667  -0.0833333   0.0000000), wk =   0.0198020
        k(   12) = (   0.1833333  -0.0916667   0.0000000), wk =   0.0198020
        k(   13) = (   0.2000000  -0.1000000   0.0000000), wk =   0.0198020
        k(   14) = (   0.2166667  -0.1083333   0.0000000), wk =   0.0198020
        k(   15) = (   0.2333333  -0.1166667   0.0000000), wk =   0.0198020
        k(   16) = (   0.2500000  -0.1250000   0.0000000), wk =   0.0198020
        k(   17) = (   0.2666667  -0.1333333   0.0000000), wk =   0.0198020
        k(   18) = (   0.2833333  -0.1416667   0.0000000), wk =   0.0198020
        k(   19) = (   0.3000000  -0.1500000   0.0000000), wk =   0.0198020
        k(   20) = (   0.3166667  -0.1583333   0.0000000), wk =   0.0198020
        k(   21) = (   0.3333333  -0.1666667   0.0000000), wk =   0.0198020
        k(   22) = (   0.3500000  -0.1750000   0.0000000), wk =   0.0198020
        k(   23) = (   0.3666667  -0.1833333   0.0000000), wk =   0.0198020
        k(   24) = (   0.3833333  -0.1916667   0.0000000), wk =   0.0198020
        k(   25) = (   0.4000000  -0.2000000   0.0000000), wk =   0.0198020
        k(   26) = (   0.4166667  -0.2083333   0.0000000), wk =   0.0198020
        k(   27) = (   0.4333333  -0.2166667   0.0000000), wk =   0.0198020
        k(   28) = (   0.4500000  -0.2250000   0.0000000), wk =   0.0198020
        k(   29) = (   0.4666667  -0.2333333   0.0000000), wk =   0.0198020
        k(   30) = (   0.4833333  -0.2416667   0.0000000), wk =   0.0198020
        k(   31) = (   0.5000000  -0.2500000   0.0000000), wk =   0.0198020
        k(   32) = (   0.5166667  -0.2583333   0.0000000), wk =   0.0198020
        k(   33) = (   0.5333333  -0.2666667   0.0000000), wk =   0.0198020
        k(   34) = (   0.5500000  -0.2750000   0.0000000), wk =   0.0198020
        k(   35) = (   0.5666667  -0.2833333   0.0000000), wk =   0.0198020
        k(   36) = (   0.5833333  -0.2916667   0.0000000), wk =   0.0198020
        k(   37) = (   0.6000000  -0.3000000   0.0000000), wk =   0.0198020
        k(   38) = (   0.6166667  -0.3083333   0.0000000), wk =   0.0198020
        k(   39) = (   0.6333333  -0.3166667   0.0000000), wk =   0.0198020
        k(   40) = (   0.6500000  -0.3250000   0.0000000), wk =   0.0198020
        k(   41) = (   0.6666667  -0.3333333   0.0000000), wk =   0.0198020
        k(   42) = (   0.6583333  -0.3166667   0.0000000), wk =   0.0198020
        k(   43) = (   0.6500000  -0.3000000   0.0000000), wk =   0.0198020
        k(   44) = (   0.6416667  -0.2833333   0.0000000), wk =   0.0198020
        k(   45) = (   0.6333333  -0.2666667   0.0000000), wk =   0.0198020
        k(   46) = (   0.6250000  -0.2500000   0.0000000), wk =   0.0198020
        k(   47) = (   0.6166667  -0.2333333   0.0000000), wk =   0.0198020
        k(   48) = (   0.6083333  -0.2166667   0.0000000), wk =   0.0198020
        k(   49) = (   0.6000000  -0.2000000   0.0000000), wk =   0.0198020
        k(   50) = (   0.5916667  -0.1833333   0.0000000), wk =   0.0198020
        k(   51) = (   0.5833333  -0.1666667   0.0000000), wk =   0.0198020
        k(   52) = (   0.5750000  -0.1500000   0.0000000), wk =   0.0198020
        k(   53) = (   0.5666667  -0.1333333   0.0000000), wk =   0.0198020
        k(   54) = (   0.5583333  -0.1166667   0.0000000), wk =   0.0198020
        k(   55) = (   0.5500000  -0.1000000   0.0000000), wk =   0.0198020
        k(   56) = (   0.5416667  -0.0833333   0.0000000), wk =   0.0198020
        k(   57) = (   0.5333333  -0.0666667   0.0000000), wk =   0.0198020
        k(   58) = (   0.5250000  -0.0500000   0.0000000), wk =   0.0198020
        k(   59) = (   0.5166667  -0.0333333   0.0000000), wk =   0.0198020
        k(   60) = (   0.5083333  -0.0166667   0.0000000), wk =   0.0198020
        k(   61) = (   0.5000000   0.0000000   0.0000000), wk =   0.0198020
        k(   62) = (   0.4875000   0.0000000   0.0000000), wk =   0.0198020
        k(   63) = (   0.4750000   0.0000000   0.0000000), wk =   0.0198020
        k(   64) = (   0.4625000   0.0000000   0.0000000), wk =   0.0198020
        k(   65) = (   0.4500000   0.0000000   0.0000000), wk =   0.0198020
        k(   66) = (   0.4375000   0.0000000   0.0000000), wk =   0.0198020
        k(   67) = (   0.4250000   0.0000000   0.0000000), wk =   0.0198020
        k(   68) = (   0.4125000   0.0000000   0.0000000), wk =   0.0198020
        k(   69) = (   0.4000000   0.0000000   0.0000000), wk =   0.0198020
        k(   70) = (   0.3875000   0.0000000   0.0000000), wk =   0.0198020
        k(   71) = (   0.3750000   0.0000000   0.0000000), wk =   0.0198020
        k(   72) = (   0.3625000   0.0000000   0.0000000), wk =   0.0198020
        k(   73) = (   0.3500000   0.0000000   0.0000000), wk =   0.0198020
        k(   74) = (   0.3375000   0.0000000   0.0000000), wk =   0.0198020
        k(   75) = (   0.3250000   0.0000000   0.0000000), wk =   0.0198020
        k(   76) = (   0.3125000   0.0000000   0.0000000), wk =   0.0198020
        k(   77) = (   0.3000000   0.0000000   0.0000000), wk =   0.0198020
        k(   78) = (   0.2875000   0.0000000   0.0000000), wk =   0.0198020
        k(   79) = (   0.2750000   0.0000000   0.0000000), wk =   0.0198020
        k(   80) = (   0.2625000   0.0000000   0.0000000), wk =   0.0198020
        k(   81) = (   0.2500000   0.0000000   0.0000000), wk =   0.0198020
        k(   82) = (   0.2375000   0.0000000   0.0000000), wk =   0.0198020
        k(   83) = (   0.2250000   0.0000000   0.0000000), wk =   0.0198020
        k(   84) = (   0.2125000   0.0000000   0.0000000), wk =   0.0198020
        k(   85) = (   0.2000000   0.0000000   0.0000000), wk =   0.0198020
        k(   86) = (   0.1875000   0.0000000   0.0000000), wk =   0.0198020
        k(   87) = (   0.1750000   0.0000000   0.0000000), wk =   0.0198020
        k(   88) = (   0.1625000   0.0000000   0.0000000), wk =   0.0198020
        k(   89) = (   0.1500000   0.0000000   0.0000000), wk =   0.0198020
        k(   90) = (   0.1375000   0.0000000   0.0000000), wk =   0.0198020
        k(   91) = (   0.1250000   0.0000000   0.0000000), wk =   0.0198020
        k(   92) = (   0.1125000   0.0000000   0.0000000), wk =   0.0198020
        k(   93) = (   0.1000000   0.0000000   0.0000000), wk =   0.0198020
        k(   94) = (   0.0875000   0.0000000   0.0000000), wk =   0.0198020
        k(   95) = (   0.0750000   0.0000000   0.0000000), wk =   0.0198020
        k(   96) = (   0.0625000   0.0000000   0.0000000), wk =   0.0198020
        k(   97) = (   0.0500000   0.0000000   0.0000000), wk =   0.0198020
        k(   98) = (   0.0375000   0.0000000   0.0000000), wk =   0.0198020
        k(   99) = (   0.0250000   0.0000000   0.0000000), wk =   0.0198020
        k(  100) = (   0.0125000   0.0000000   0.0000000), wk =   0.0198020
        k(  101) = (   0.0000000   0.0000000   0.0000000), wk =   0.0198020

     Dense  grid:   126991 G-vectors     FFT dimensions: (  45,  45, 160)

     Smooth grid:    32155 G-vectors     FFT dimensions: (  27,  27, 100)

     Dynamical RAM for                 wfc:       0.18 MB

     Dynamical RAM for     wfc (w. buffer):      18.72 MB

     Dynamical RAM for           str. fact:       0.39 MB

     Dynamical RAM for           local pot:       0.00 MB

     Dynamical RAM for          nlocal pot:       0.21 MB

     Dynamical RAM for                qrad:       3.59 MB

     Dynamical RAM for          rho,v,vnew:       1.32 MB

     Dynamical RAM for           G-vectors:       0.75 MB

     Dynamical RAM for          h,s,v(r/c):       0.02 MB

     Dynamical RAM for          <psi|beta>:       0.02 MB

     Dynamical RAM for                 psi:       0.37 MB

     Dynamical RAM for                hpsi:       0.37 MB

     Dynamical RAM for                spsi:       0.37 MB

     Dynamical RAM for      wfcinit/wfcrot:       0.39 MB

     Dynamical RAM for           addusdens:      36.44 MB

     Estimated static dynamical RAM per process >      26.80 MB

     Estimated max dynamical RAM per process >      63.24 MB

     Estimated total dynamical RAM >     632.37 MB

     Check: negative core charge=   -0.000001

     The potential is recalculated from file :
     ./MoS2.save/charge-density


     negative rho (up, down):  7.717E-08 0.000E+00
     Starting wfcs are   21 randomized atomic wfcs +    9 random wfcs
     Checking if some PAW data can be deallocated... 
       PAW data deallocated on    6 nodes for type:  1
       PAW data deallocated on    4 nodes for type:  2

     Band Structure Calculation
     Davidson diagonalization with overlap

     Computing kpt #:     1  of   101
     total cpu time spent up to now is        1.8 secs

     Computing kpt #:     2  of   101
     c_bands:  1 eigenvalues not converged
     total cpu time spent up to now is        2.7 secs

     Computing kpt #:     3  of   101
     total cpu time spent up to now is        3.5 secs

     Computing kpt #:     4  of   101
     total cpu time spent up to now is        4.1 secs

     Computing kpt #:     5  of   101
     total cpu time spent up to now is        4.7 secs

     Computing kpt #:     6  of   101
     total cpu time spent up to now is        5.3 secs

     Computing kpt #:     7  of   101
     total cpu time spent up to now is        6.0 secs

     Computing kpt #:     8  of   101
     total cpu time spent up to now is        6.6 secs

     Computing kpt #:     9  of   101
     total cpu time spent up to now is        7.3 secs

     Computing kpt #:    10  of   101
     total cpu time spent up to now is        7.9 secs

     Computing kpt #:    11  of   101
     total cpu time spent up to now is        8.5 secs

     Computing kpt #:    12  of   101
     total cpu time spent up to now is        9.1 secs

     Computing kpt #:    13  of   101
     total cpu time spent up to now is        9.7 secs

     Computing kpt #:    14  of   101
     total cpu time spent up to now is       10.3 secs

     Computing kpt #:    15  of   101
     total cpu time spent up to now is       11.0 secs

     Computing kpt #:    16  of   101
     total cpu time spent up to now is       11.6 secs

     Computing kpt #:    17  of   101
     total cpu time spent up to now is       12.2 secs

     Computing kpt #:    18  of   101
     total cpu time spent up to now is       12.8 secs

     Computing kpt #:    19  of   101
     total cpu time spent up to now is       13.4 secs

     Computing kpt #:    20  of   101
     total cpu time spent up to now is       14.0 secs

     Computing kpt #:    21  of   101
     total cpu time spent up to now is       14.6 secs

     Computing kpt #:    22  of   101
     total cpu time spent up to now is       15.2 secs

     Computing kpt #:    23  of   101
     total cpu time spent up to now is       15.7 secs

     Computing kpt #:    24  of   101
     total cpu time spent up to now is       16.2 secs

     Computing kpt #:    25  of   101
     total cpu time spent up to now is       16.8 secs

     Computing kpt #:    26  of   101
     total cpu time spent up to now is       17.3 secs

     Computing kpt #:    27  of   101
     total cpu time spent up to now is       17.8 secs

     Computing kpt #:    28  of   101
     total cpu time spent up to now is       18.4 secs

     Computing kpt #:    29  of   101
     total cpu time spent up to now is       18.9 secs

     Computing kpt #:    30  of   101
     total cpu time spent up to now is       19.5 secs

     Computing kpt #:    31  of   101
     total cpu time spent up to now is       20.0 secs

     Computing kpt #:    32  of   101
     total cpu time spent up to now is       20.5 secs

     Computing kpt #:    33  of   101
     total cpu time spent up to now is       21.0 secs

     Computing kpt #:    34  of   101
     total cpu time spent up to now is       21.4 secs

     Computing kpt #:    35  of   101
     total cpu time spent up to now is       21.9 secs

     Computing kpt #:    36  of   101
     total cpu time spent up to now is       22.4 secs

     Computing kpt #:    37  of   101
     total cpu time spent up to now is       22.9 secs

     Computing kpt #:    38  of   101
     total cpu time spent up to now is       23.3 secs

     Computing kpt #:    39  of   101
     total cpu time spent up to now is       23.8 secs

     Computing kpt #:    40  of   101
     total cpu time spent up to now is       24.3 secs

     Computing kpt #:    41  of   101
     total cpu time spent up to now is       24.7 secs

     Computing kpt #:    42  of   101
     total cpu time spent up to now is       25.2 secs

     Computing kpt #:    43  of   101
     total cpu time spent up to now is       25.7 secs

     Computing kpt #:    44  of   101
     total cpu time spent up to now is       26.1 secs

     Computing kpt #:    45  of   101
     total cpu time spent up to now is       26.6 secs

     Computing kpt #:    46  of   101
     total cpu time spent up to now is       27.1 secs

     Computing kpt #:    47  of   101
     total cpu time spent up to now is       27.7 secs

     Computing kpt #:    48  of   101
     total cpu time spent up to now is       28.2 secs

     Computing kpt #:    49  of   101
     total cpu time spent up to now is       28.8 secs

     Computing kpt #:    50  of   101
     total cpu time spent up to now is       29.5 secs

     Computing kpt #:    51  of   101
     total cpu time spent up to now is       30.1 secs

     Computing kpt #:    52  of   101
     total cpu time spent up to now is       30.7 secs

     Computing kpt #:    53  of   101
     total cpu time spent up to now is       31.4 secs

     Computing kpt #:    54  of   101
     total cpu time spent up to now is       32.0 secs

     Computing kpt #:    55  of   101
     total cpu time spent up to now is       32.6 secs

     Computing kpt #:    56  of   101
     total cpu time spent up to now is       33.1 secs

     Computing kpt #:    57  of   101
     total cpu time spent up to now is       33.7 secs

     Computing kpt #:    58  of   101
     total cpu time spent up to now is       34.2 secs

     Computing kpt #:    59  of   101
     total cpu time spent up to now is       34.7 secs

     Computing kpt #:    60  of   101
     total cpu time spent up to now is       35.1 secs

     Computing kpt #:    61  of   101
     total cpu time spent up to now is       35.6 secs

     Computing kpt #:    62  of   101
     total cpu time spent up to now is       36.1 secs

     Computing kpt #:    63  of   101
     total cpu time spent up to now is       36.6 secs

     Computing kpt #:    64  of   101
     total cpu time spent up to now is       37.1 secs

     Computing kpt #:    65  of   101
     total cpu time spent up to now is       37.6 secs

     Computing kpt #:    66  of   101
     total cpu time spent up to now is       38.1 secs

     Computing kpt #:    67  of   101
     total cpu time spent up to now is       38.6 secs

     Computing kpt #:    68  of   101
     total cpu time spent up to now is       39.2 secs

     Computing kpt #:    69  of   101
     total cpu time spent up to now is       39.7 secs

     Computing kpt #:    70  of   101
     total cpu time spent up to now is       40.3 secs

     Computing kpt #:    71  of   101
     total cpu time spent up to now is       40.8 secs

     Computing kpt #:    72  of   101
     total cpu time spent up to now is       41.4 secs

     Computing kpt #:    73  of   101
     total cpu time spent up to now is       42.1 secs

     Computing kpt #:    74  of   101
     total cpu time spent up to now is       42.7 secs

     Computing kpt #:    75  of   101
     total cpu time spent up to now is       43.3 secs

     Computing kpt #:    76  of   101
     total cpu time spent up to now is       43.9 secs

     Computing kpt #:    77  of   101
     total cpu time spent up to now is       44.4 secs

     Computing kpt #:    78  of   101
     total cpu time spent up to now is       45.0 secs

     Computing kpt #:    79  of   101
     total cpu time spent up to now is       45.4 secs

     Computing kpt #:    80  of   101
     total cpu time spent up to now is       45.9 secs

     Computing kpt #:    81  of   101
     total cpu time spent up to now is       46.4 secs

     Computing kpt #:    82  of   101
     total cpu time spent up to now is       46.9 secs

     Computing kpt #:    83  of   101
     total cpu time spent up to now is       47.4 secs

     Computing kpt #:    84  of   101
     total cpu time spent up to now is       47.9 secs

     Computing kpt #:    85  of   101
     total cpu time spent up to now is       48.4 secs

     Computing kpt #:    86  of   101
     total cpu time spent up to now is       48.9 secs

     Computing kpt #:    87  of   101
     total cpu time spent up to now is       49.5 secs

     Computing kpt #:    88  of   101
     total cpu time spent up to now is       50.1 secs

     Computing kpt #:    89  of   101
     total cpu time spent up to now is       50.7 secs

     Computing kpt #:    90  of   101
     total cpu time spent up to now is       51.3 secs

     Computing kpt #:    91  of   101
     total cpu time spent up to now is       52.0 secs

     Computing kpt #:    92  of   101
     total cpu time spent up to now is       52.6 secs

     Computing kpt #:    93  of   101
     total cpu time spent up to now is       53.4 secs

     Computing kpt #:    94  of   101
     total cpu time spent up to now is       54.1 secs

     Computing kpt #:    95  of   101
     total cpu time spent up to now is       54.8 secs

     Computing kpt #:    96  of   101
     total cpu time spent up to now is       55.5 secs

     Computing kpt #:    97  of   101
     total cpu time spent up to now is       56.1 secs

     Computing kpt #:    98  of   101
     total cpu time spent up to now is       56.7 secs

     Computing kpt #:    99  of   101
     total cpu time spent up to now is       57.4 secs

     Computing kpt #:   100  of   101
     total cpu time spent up to now is       58.3 secs

     Computing kpt #:   101  of   101
     total cpu time spent up to now is       59.1 secs

     ethr =  3.85E-11,  avg # of iterations = 52.7

     total cpu time spent up to now is       59.1 secs

     End of band structure calculation

          k = 0.0000 0.0000 0.0000 (  4009 PWs)   bands (ev):

   -58.0964 -32.2191 -32.0214 -32.0212 -11.2324  -9.9529  -2.7653   0.2279
     0.2291   1.0634   1.3322   1.3336   2.8018   5.5694   5.5696   5.7865
     5.7878   7.8961   9.1966   9.6600  11.7676  12.4403  13.6336  13.6355
    15.5961  15.6350  15.6377  17.1389  18.9287  18.9292

     occupation numbers 
     1.0000   1.0000   1.0000   1.0000   1.0000   1.0000   1.0000   1.0000
     1.0000   1.0000   1.0000   1.0000   1.0000   0.0000   0.0000   0.0000
     0.0000   0.0000   0.0000   0.0000   0.0000   0.0000   0.0000   0.0000
     0.0000   0.0000   0.0000   0.0000   0.0000   0.0000

          k = 0.0165 0.0000 0.0000 (  4005 PWs)   bands (ev):

   -58.0963 -32.2190 -32.0222 -32.0214 -11.2293  -9.9516  -2.7617   0.2207
     0.2323   1.0310   1.3284   1.3601   2.8004   5.5642   5.5751   5.7766
     5.7842   7.9026   9.2108   9.6638  11.7831  12.4420  13.6261  13.6453
    15.5952  15.6066  15.6392  17.1396  18.9011  18.9339

     occupation numbers 
     1.0000   1.0000   1.0000   1.0000   1.0000   1.0000   1.0000   1.0000
     1.0000   1.0000   1.0000   1.0000   1.0000   0.0000   0.0000   0.0000
     0.0000   0.0000   0.0000   0.0000   0.0000   0.0000   0.0000   0.0000
     0.0000   0.0000   0.0000   0.0000   0.0000   0.0000

          k = 0.0331 0.0000 0.0000 (  4007 PWs)   bands (ev):

   -58.0961 -32.2186 -32.0244 -32.0219 -11.2201  -9.9477  -2.7510   0.1990
     0.2420   0.9570   1.3127   1.4209   2.7964   5.5484   5.5918   5.7477
     5.7735   7.9216   9.2532   9.6751  11.8289  12.4466  13.6044  13.6746
    15.5253  15.5919  15.6435  17.1413  18.8300  18.8638

     occupation numbers 
     1.0000   1.0000   1.0000   1.0000   1.0000   1.0000   1.0000   1.0000
     1.0000   1.0000   1.0000   1.0000   1.0000   0.0000   0.0000   0.0000
     0.0000   0.0000   0.0000   0.0000   0.0000   0.0000   0.0000   0.0000
     0.0000   0.0000   0.0000   0.0000   0.0000   0.0000

          k = 0.0496 0.0000 0.0000 (  4003 PWs)   bands (ev):

   -58.0957 -32.2178 -32.0282 -32.0227 -11.2049  -9.9413  -2.7331   0.1636
     0.2581   0.8661   1.2864   1.4899   2.7893   5.5236   5.6195   5.7018
     5.7559   7.9521   9.3228   9.6938  11.9035  12.4537  13.5704  13.7229
    15.4003  15.5848  15.6503  17.1426  18.7312  18.7849

     occupation numbers 
     1.0000   1.0000   1.0000   1.0000   1.0000   1.0000   1.0000   1.0000
     1.0000   1.0000   1.0000   1.0000   1.0000   0.0000   0.0000   0.0000
     0.0000   0.0000   0.0000   0.0000   0.0000   0.0000   0.0000   0.0000
     0.0000   0.0000   0.0000   0.0000   0.0000   0.0000

          k = 0.0661 0.0000 0.0000 (  3997 PWs)   bands (ev):

   -58.0952 -32.2168 -32.0334 -32.0239 -11.1836  -9.9324  -2.7084   0.1152
     0.2805   0.7678   1.2493   1.5580   2.7789   5.4918   5.6422   5.6576
     5.7314   7.9924   9.4183   9.7197  12.0045  12.4624  13.5270  13.7893
    15.2431  15.5723  15.6591  17.1417  18.6171  18.7015

     occupation numbers 
     1.0000   1.0000   1.0000   1.0000   1.0000   1.0000   1.0000   1.0000
     1.0000   1.0000   1.0000   1.0000   1.0000   0.0000   0.0000   0.0000
     0.0000   0.0000   0.0000   0.0000   0.0000   0.0000   0.0000   0.0000
     0.0000   0.0000   0.0000   0.0000   0.0000   0.0000

          k = 0.0827 0.0000 0.0000 (  3997 PWs)   bands (ev):

   -58.0946 -32.2155 -32.0399 -32.0255 -11.1565  -9.9210  -2.6772   0.0551
     0.3089   0.6659   1.2011   1.6217   2.7644   5.4554   5.5723   5.7007
     5.7058   8.0410   9.5378   9.7527  12.1283  12.4714  13.4775  13.8721
    15.0648  15.5531  15.6687  17.1359  18.5004  18.6045

     occupation numbers 
     1.0000   1.0000   1.0000   1.0000   1.0000   1.0000   1.0000   1.0000
     1.0000   1.0000   1.0000   1.0000   1.0000   0.0000   0.0000   0.0000
     0.0000   0.0000   0.0000   0.0000   0.0000   0.0000   0.0000   0.0000
     0.0000   0.0000   0.0000   0.0000   0.0000   0.0000

          k = 0.0992 0.0000 0.0000 (  3993 PWs)   bands (ev):

   -58.0938 -32.2139 -32.0478 -32.0274 -11.1235  -9.9072  -2.6398  -0.0154
     0.3430   0.5626   1.1418   1.6793   2.7452   5.4170   5.4957   5.6641
     5.7633   8.0968   9.6790   9.7924  12.2711  12.4796  13.4256  13.9691
    14.8746  15.5271  15.6776  17.1229  18.3933  18.4803

     occupation numbers 
     1.0000   1.0000   1.0000   1.0000   1.0000   1.0000   1.0000   1.0000
     1.0000   1.0000   1.0000   1.0000   1.0000   0.0000   0.0000   0.0000
     0.0000   0.0000   0.0000   0.0000   0.0000   0.0000   0.0000   0.0000
     0.0000   0.0000   0.0000   0.0000   0.0000   0.0000

          k = 0.1157 0.0000 0.0000 (  3993 PWs)   bands (ev):

   -58.0929 -32.2121 -32.0570 -32.0296 -11.0850  -9.8910  -2.5967  -0.0947
     0.3826   0.4590   1.0712   1.7302   2.7205   5.3793   5.4158   5.6223
     5.8292   8.1588   9.8387   9.8392  12.4280  12.4856  13.3744  14.0766
    14.6802  15.4960  15.6836  17.1014  18.3061  18.3235

     occupation numbers 
     1.0000   1.0000   1.0000   1.0000   1.0000   1.0000   1.0000   1.0000
     1.0000   1.0000   1.0000   1.0000   1.0000   0.0000   0.0000   0.0000
     0.0000   0.0000   0.0000   0.0000   0.0000   0.0000   0.0000   0.0000
     0.0000   0.0000   0.0000   0.0000   0.0000   0.0000

          k = 0.1323 0.0000 0.0000 (  3999 PWs)   bands (ev):

   -58.0919 -32.2100 -32.0672 -32.0323 -11.0409  -9.8725  -2.5485  -0.1812
     0.3563   0.4272   0.9895   1.7739   2.6897   5.3355   5.3444   5.5764
     5.9027   8.2268   9.8912  10.0157  12.4882  12.5933  13.3267  14.1893
    14.4884  15.4643  15.6836  17.0729  18.1380  18.2457

     occupation numbers 
     1.0000   1.0000   1.0000   1.0000   1.0000   1.0000   1.0000   1.0000
     1.0000   1.0000   1.0000   1.0000   1.0000   0.0000   0.0000   0.0000
     0.0000   0.0000   0.0000   0.0000   0.0000   0.0000   0.0000   0.0000
     0.0000   0.0000   0.0000   0.0000   0.0000   0.0000

          k = 0.1488 0.0000 0.0000 (  4005 PWs)   bands (ev):

   -58.0907 -32.2078 -32.0785 -32.0352 -10.9917  -9.8518  -2.4959  -0.2730
     0.2552   0.4761   0.8970   1.8103   2.6521   5.2574   5.3145   5.5275
     5.9826   8.3003   9.9496  10.2056  12.4866  12.7599  13.2843  14.2991
    14.3057  15.4402  15.6738  17.0436  17.9282  18.2142

     occupation numbers 
     1.0000   1.0000   1.0000   1.0000   1.0000   1.0000   1.0000   1.0000
     1.0000   1.0000   1.0000   1.0000   1.0000   0.0000   0.0000   0.0000
     0.0000   0.0000   0.0000   0.0000   0.0000   0.0000   0.0000   0.0000
     0.0000   0.0000   0.0000   0.0000   0.0000   0.0000

          k = 0.1653 0.0000 0.0000 (  4001 PWs)   bands (ev):

   -58.0895 -32.2053 -32.0907 -32.0385 -10.9375  -9.8291  -2.4399  -0.3682
     0.1564   0.5286   0.7944   1.8393   2.6073   5.1831   5.2910   5.4772
     6.0678   8.3792  10.0136  10.4058  12.4801  12.9177  13.2485  14.1408
    14.3946  15.4357  15.6506  17.0227  17.6982  18.2091

     occupation numbers 
     1.0000   1.0000   1.0000   1.0000   1.0000   1.0000   1.0000   1.0000
     1.0000   1.0000   1.0000   1.0000   1.0000   0.0000   0.0000   0.0000
     0.0000   0.0000   0.0000   0.0000   0.0000   0.0000   0.0000   0.0000
     0.0000   0.0000   0.0000   0.0000   0.0000   0.0000

          k = 0.1819 0.0000 0.0000 (  3999 PWs)   bands (ev):

   -58.0882 -32.2026 -32.1036 -32.0422 -10.8785  -9.8043  -2.3815  -0.4648
     0.0602   0.5837   0.6827   1.8611   2.5554   5.1139   5.2749   5.4272
     6.1571   8.4637  10.0829  10.6131  12.4685  13.0509  13.2194  14.0076
    14.4626  15.4651  15.6114  17.0198  17.4522  18.2253

     occupation numbers 
     1.0000   1.0000   1.0000   1.0000   1.0000   1.0000   1.0000   1.0000
     1.0000   1.0000   1.0000   1.0000   1.0000   0.0000   0.0000   0.0000
     0.0000   0.0000   0.0000   0.0000   0.0000   0.0000   0.0000   0.0000
     0.0000   0.0000   0.0000   0.0000   0.0000   0.0000

          k = 0.1984 0.0000 0.0000 (  3995 PWs)   bands (ev):

   -58.0867 -32.1997 -32.1172 -32.0462 -10.8151  -9.7777  -2.3221  -0.5607
    -0.0330   0.5631   0.6402   1.8758   2.4967   5.0501   5.2669   5.3798
     6.2492   8.5535  10.1569  10.8241  12.4522  13.1343  13.1963  13.9287
    14.4952  15.5371  15.5565  17.0415  17.1949  18.2565

     occupation numbers 
     1.0000   1.0000   1.0000   1.0000   1.0000   1.0000   1.0000   1.0000
     1.0000   1.0000   1.0000   1.0000   1.0000   0.0000   0.0000   0.0000
     0.0000   0.0000   0.0000   0.0000   0.0000   0.0000   0.0000   0.0000
     0.0000   0.0000   0.0000   0.0000   0.0000   0.0000

          k = 0.2149 0.0000 0.0000 (  3999 PWs)   bands (ev):

   -58.0853 -32.1967 -32.1313 -32.0506 -10.7476  -9.7493  -2.2633  -0.6537
    -0.1233   0.4373   0.6965   1.8836   2.4324   4.9915   5.2672   5.3371
     6.3427   8.6489  10.2353  11.0345  12.4320  13.1442  13.1784  13.9253
    14.4954  15.4893  15.6472  16.9335  17.0900  18.2962

     occupation numbers 
     1.0000   1.0000   1.0000   1.0000   1.0000   1.0000   1.0000   1.0000
     1.0000   1.0000   1.0000   1.0000   1.0000   0.0000   0.0000   0.0000
     0.0000   0.0000   0.0000   0.0000   0.0000   0.0000   0.0000   0.0000
     0.0000   0.0000   0.0000   0.0000   0.0000   0.0000

          k = 0.2315 0.0000 0.0000 (  4003 PWs)   bands (ev):

   -58.0837 -32.1936 -32.1457 -32.0553 -10.6763  -9.7193  -2.2071  -0.7413
    -0.2112   0.3075   0.7507   1.8847   2.3641   4.9375   5.2758   5.3014
     6.4364   8.7497  10.3175  11.2388  12.4099  13.0891  13.1648  13.9867
    14.4750  15.4153  15.7746  16.6824  17.1627  18.2722

     occupation numbers 
     1.0000   1.0000   1.0000   1.0000   1.0000   1.0000   1.0000   1.0000
     1.0000   1.0000   1.0000   1.0000   1.0000   0.0000   0.0000   0.0000
     0.0000   0.0000   0.0000   0.0000   0.0000   0.0000   0.0000   0.0000
     0.0000   0.0000   0.0000   0.0000   0.0000   0.0000

          k = 0.2480 0.0000 0.0000 (  4015 PWs)   bands (ev):

   -58.0821 -32.1904 -32.1603 -32.0604 -10.6016  -9.6880  -2.1560  -0.8205
    -0.2978   0.1766   0.8003   1.8792   2.2942   4.8879   5.2743   5.2922
     6.5290   8.8560  10.4030  11.4288  12.3897  13.0007  13.1557  14.0789
    14.4461  15.3412  15.8681  16.4852  17.2538  18.2508

     occupation numbers 
     1.0000   1.0000   1.0000   1.0000   1.0000   1.0000   1.0000   1.0000
     1.0000   1.0000   1.0000   1.0000   1.0000   0.0000   0.0000   0.0000
     0.0000   0.0000   0.0000   0.0000   0.0000   0.0000   0.0000   0.0000
     0.0000   0.0000   0.0000   0.0000   0.0000   0.0000

          k = 0.2645 0.0000 0.0000 (  4023 PWs)   bands (ev):

   -58.0805 -32.1871 -32.1750 -32.0658 -10.5239  -9.6553  -2.1128  -0.8885
    -0.3851   0.0482   0.8423   1.8673   2.2257   4.8430   5.2565   5.3160
     6.6192   8.9676  10.4912  11.5910  12.3802  12.9033  13.1520  14.1765
    14.4174  15.2732  15.8168  16.4466  17.3542  18.2379

     occupation numbers 
     1.0000   1.0000   1.0000   1.0000   1.0000   1.0000   1.0000   1.0000
     1.0000   1.0000   1.0000   1.0000   1.0000   0.0000   0.0000   0.0000
     0.0000   0.0000   0.0000   0.0000   0.0000   0.0000   0.0000   0.0000
     0.0000   0.0000   0.0000   0.0000   0.0000   0.0000

          k = 0.2811 0.0000 0.0000 (  4015 PWs)   bands (ev):

   -58.0788 -32.1896 -32.1838 -32.0715 -10.4437  -9.6216  -2.0804  -0.9421
    -0.4766  -0.0725   0.8732   1.8493   2.1621   4.8038   5.2480   5.3465
     6.7059   9.0845  10.5816  11.7041  12.3973  12.8093  13.1559  14.2664
    14.3932  15.2166  15.6203  16.5636  17.4516  18.2356

     occupation numbers 
     1.0000   1.0000   1.0000   1.0000   1.0000   1.0000   1.0000   1.0000
     1.0000   1.0000   1.0000   1.0000   1.0000   0.0000   0.0000   0.0000
     0.0000   0.0000   0.0000   0.0000   0.0000   0.0000   0.0000   0.0000
     0.0000   0.0000   0.0000   0.0000   0.0000   0.0000

          k = 0.2976 0.0000 0.0000 (  4007 PWs)   bands (ev):

   -58.0772 -32.2039 -32.1804 -32.0776 -10.3614  -9.5869  -2.0613  -0.9789
    -0.5764  -0.1798   0.8894   1.8252   2.1072   4.7719   5.2476   5.3829
     6.7881   9.2064  10.6736  11.7482  12.4552  12.7249  13.1701  14.3427
    14.3739  15.1754  15.3819  16.7314  17.5295  18.2459

     occupation numbers 
     1.0000   1.0000   1.0000   1.0000   1.0000   1.0000   1.0000   1.0000
     1.0000   1.0000   1.0000   1.0000   1.0000   0.0000   0.0000   0.0000
     0.0000   0.0000   0.0000   0.0000   0.0000   0.0000   0.0000   0.0000
     0.0000   0.0000   0.0000   0.0000   0.0000   0.0000

          k = 0.3141 0.0000 0.0000 (  4015 PWs)   bands (ev):

   -58.0755 -32.2178 -32.1771 -32.0841 -10.2776  -9.5515  -2.0568  -0.9979
    -0.6875  -0.2694   0.8873   1.7953   2.0644   4.7492   5.2539   5.4244
     6.8649   9.3331  10.7666  11.7260  12.5457  12.6538  13.1973  14.3553
    14.4038  15.1492  15.1517  16.9048  17.5694  18.2691

     occupation numbers 
     1.0000   1.0000   1.0000   1.0000   1.0000   1.0000   1.0000   1.0000
     1.0000   1.0000   1.0000   1.0000   1.0000   0.0000   0.0000   0.0000
     0.0000   0.0000   0.0000   0.0000   0.0000   0.0000   0.0000   0.0000
     0.0000   0.0000   0.0000   0.0000   0.0000   0.0000

          k = 0.3307 0.0000 0.0000 (  4007 PWs)   bands (ev):

   -58.0739 -32.2313 -32.1737 -32.0908 -10.1927  -9.5157  -2.0660  -0.9999
    -0.8100  -0.3399   0.8651   1.7598   2.0358   4.7376   5.2650   5.4699
     6.9355   9.4641  10.8601  11.6580  12.5981  12.6415  13.2394  14.3275
    14.4514  14.9497  15.1450  17.0657  17.5576  18.2989

     occupation numbers 
     1.0000   1.0000   1.0000   1.0000   1.0000   1.0000   1.0000   1.0000
     1.0000   1.0000   1.0000   1.0000   1.0000   0.0000   0.0000   0.0000
     0.0000   0.0000   0.0000   0.0000   0.0000   0.0000   0.0000   0.0000
     0.0000   0.0000   0.0000   0.0000   0.0000   0.0000

          k = 0.3472 0.0000 0.0000 (  4003 PWs)   bands (ev):

   -58.0722 -32.2441 -32.1705 -32.0978 -10.1073  -9.4796  -2.0865  -0.9877
    -0.9406  -0.3930   0.8225   1.7189   2.0219   4.7387   5.2791   5.5184
     6.9997   9.5988  10.9538  11.5627  12.5593  12.7177  13.2958  14.2759
    14.4897  14.8111  15.1526  17.2049  17.4929  18.3158

     occupation numbers 
     1.0000   1.0000   1.0000   1.0000   1.0000   1.0000   1.0000   1.0000
     1.0000   1.0000   1.0000   1.0000   1.0000   0.0000   0.0000   0.0000
     0.0000   0.0000   0.0000   0.0000   0.0000   0.0000   0.0000   0.0000
     0.0000   0.0000   0.0000   0.0000   0.0000   0.0000

          k = 0.3637 0.0000 0.0000 (  4003 PWs)   bands (ev):

   -58.0706 -32.2561 -32.1673 -32.1052 -10.0221  -9.4434  -2.1147  -1.0758
    -0.9652  -0.4317   0.7613   1.6729   2.0214   4.7532   5.2947   5.5689
     7.0571   9.7362  11.0473  11.4519  12.5383  12.7562  13.3625  14.2003
    14.5234  14.7478  15.1709  17.3192  17.3849  18.2854

     occupation numbers 
     1.0000   1.0000   1.0000   1.0000   1.0000   1.0000   1.0000   1.0000
     1.0000   1.0000   1.0000   1.0000   1.0000   0.0000   0.0000   0.0000
     0.0000   0.0000   0.0000   0.0000   0.0000   0.0000   0.0000   0.0000
     0.0000   0.0000   0.0000   0.0000   0.0000   0.0000

          k = 0.3803 0.0000 0.0000 (  3997 PWs)   bands (ev):

   -58.0691 -32.2673 -32.1641 -32.1128  -9.9376  -9.4073  -2.1467  -1.2122
    -0.9366  -0.4581   0.6844   1.6221   2.0322   4.7810   5.3105   5.6200
     7.1081   9.8748  11.1405  11.3339  12.5358  12.7453  13.4334  14.1292
    14.5566  14.7446  15.1965  17.2457  17.4082  18.1849

     occupation numbers 
     1.0000   1.0000   1.0000   1.0000   1.0000   1.0000   1.0000   1.0000
     1.0000   1.0000   1.0000   1.0000   1.0000   0.0000   0.0000   0.0000
     0.0000   0.0000   0.0000   0.0000   0.0000   0.0000   0.0000   0.0000
     0.0000   0.0000   0.0000   0.0000   0.0000   0.0000

          k = 0.3968 0.0000 0.0000 (  3991 PWs)   bands (ev):

   -58.0676 -32.2775 -32.1611 -32.1207  -9.8544  -9.3718  -2.1791  -1.3473
    -0.9056  -0.4738   0.5950   1.5669   2.0522   4.8206   5.3260   5.6705
     7.1531  10.0117  11.2157  11.2332  12.5521  12.6816  13.5058  14.0891
    14.5915  14.7789  15.2269  17.0856  17.4686  18.0328

     occupation numbers 
     1.0000   1.0000   1.0000   1.0000   1.0000   1.0000   1.0000   1.0000
     1.0000   1.0000   1.0000   1.0000   1.0000   0.0000   0.0000   0.0000
     0.0000   0.0000   0.0000   0.0000   0.0000   0.0000   0.0000   0.0000
     0.0000   0.0000   0.0000   0.0000   0.0000   0.0000

          k = 0.4133 0.0000 0.0000 (  3999 PWs)   bands (ev):

   -58.0662 -32.2867 -32.1583 -32.1289  -9.7732  -9.3368  -2.2090  -1.4794
    -0.8752  -0.4801   0.4961   1.5077   2.0799   4.8686   5.3421   5.7191
     7.1930  10.1417  11.1049  11.3256  12.5734  12.5871  13.5818  14.0823
    14.6283  14.8368  15.2613  16.9128  17.4810  17.8721

     occupation numbers 
     1.0000   1.0000   1.0000   1.0000   1.0000   1.0000   1.0000   1.0000
     1.0000   1.0000   1.0000   1.0000   1.0000   0.0000   0.0000   0.0000
     0.0000   0.0000   0.0000   0.0000   0.0000   0.0000   0.0000   0.0000
     0.0000   0.0000   0.0000   0.0000   0.0000   0.0000

          k = 0.4299 0.0000 0.0000 (  4001 PWs)   bands (ev):

   -58.0648 -32.2947 -32.1556 -32.1373  -9.6947  -9.3028  -2.2340  -1.6070
    -0.8476  -0.4777   0.3901   1.4449   2.1143   4.9191   5.3618   5.7643
     7.2289  10.2544  11.0129  11.4178  12.4381  12.6404  13.6644  14.0969
    14.6655  14.9099  15.2998  16.7337  17.4056  17.7405

     occupation numbers 
     1.0000   1.0000   1.0000   1.0000   1.0000   1.0000   1.0000   1.0000
     1.0000   1.0000   1.0000   1.0000   1.0000   0.0000   0.0000   0.0000
     0.0000   0.0000   0.0000   0.0000   0.0000   0.0000   0.0000   0.0000
     0.0000   0.0000   0.0000   0.0000   0.0000   0.0000

          k = 0.4464 0.0000 0.0000 (  4003 PWs)   bands (ev):

   -58.0636 -32.3015 -32.1530 -32.1459  -9.6195  -9.2700  -2.2522  -1.7291
    -0.8246  -0.4674   0.2789   1.3791   2.1550   4.9627   5.3914   5.8049
     7.2622  10.3309  10.9577  11.5101  12.2942  12.7113  13.7546  14.1212
    14.6999  14.9915  15.3431  16.5540  17.2497  17.6076

     occupation numbers 
     1.0000   1.0000   1.0000   1.0000   1.0000   1.0000   1.0000   1.0000
     1.0000   1.0000   1.0000   1.0000   1.0000   0.0000   0.0000   0.0000
     0.0000   0.0000   0.0000   0.0000   0.0000   0.0000   0.0000   0.0000
     0.0000   0.0000   0.0000   0.0000   0.0000   0.0000

          k = 0.4629 0.0000 0.0000 (  4001 PWs)   bands (ev):

   -58.0624 -32.3071 -32.1547 -32.1506  -9.5482  -9.2386  -2.2623  -1.8445
    -0.8071  -0.4498   0.1641   1.3108   2.2019   4.9888   5.4385   5.8396
     7.2941  10.3502  10.9562  11.6028  12.1592  12.7988  13.8512  14.1493
    14.7275  15.0749  15.3915  16.3791  17.0657  17.4372

     occupation numbers 
     1.0000   1.0000   1.0000   1.0000   1.0000   1.0000   1.0000   1.0000
     1.0000   1.0000   1.0000   1.0000   1.0000   0.0000   0.0000   0.0000
     0.0000   0.0000   0.0000   0.0000   0.0000   0.0000   0.0000   0.0000
     0.0000   0.0000   0.0000   0.0000   0.0000   0.0000

          k = 0.4795 0.0000 0.0000 (  4001 PWs)   bands (ev):

   -58.0613 -32.3115 -32.1637 -32.1484  -9.4813  -9.2089  -2.2630  -1.9527
    -0.7960  -0.4255   0.0470   1.2406   2.2546   4.9907   5.5072   5.8675
     7.3259  10.3149  10.9968  11.6959  12.0507  12.9017  13.9512  14.1796
    14.7445  15.1534  15.4428  16.2158  16.8824  17.2470

     occupation numbers 
     1.0000   1.0000   1.0000   1.0000   1.0000   1.0000   1.0000   1.0000
     1.0000   1.0000   1.0000   1.0000   1.0000   0.0000   0.0000   0.0000
     0.0000   0.0000   0.0000   0.0000   0.0000   0.0000   0.0000   0.0000
     0.0000   0.0000   0.0000   0.0000   0.0000   0.0000

          k = 0.4960 0.0000 0.0000 (  3999 PWs)   bands (ev):

   -58.0603 -32.3145 -32.1728 -32.1464  -9.4195  -9.1811  -2.2535  -2.0529
    -0.7916  -0.3952  -0.0711   1.1693   2.3126   4.9688   5.5943   5.8880
     7.3584  10.2496  11.0392  11.7896  11.9899  13.0185  14.0492  14.2146
    14.7479  15.2208  15.4896  16.0742  16.7124  17.0546

     occupation numbers 
     1.0000   1.0000   1.0000   1.0000   1.0000   1.0000   1.0000   1.0000
     1.0000   1.0000   1.0000   1.0000   1.0000   0.0000   0.0000   0.0000
     0.0000   0.0000   0.0000   0.0000   0.0000   0.0000   0.0000   0.0000
     0.0000   0.0000   0.0000   0.0000   0.0000   0.0000

          k = 0.5125 0.0000 0.0000 (  3995 PWs)   bands (ev):

   -58.0594 -32.3163 -32.1820 -32.1445  -9.3632  -9.1554  -2.2332  -2.1445
    -0.7942  -0.3597  -0.1886   1.0976   2.3751   4.9281   5.6931   5.9011
     7.3921  10.1748  11.0470  11.8834  11.9963  13.1476  14.1345  14.2612
    14.7362  15.2717  15.5145  15.9719  16.5627  16.8692

     occupation numbers 
     1.0000   1.0000   1.0000   1.0000   1.0000   1.0000   1.0000   1.0000
     1.0000   1.0000   1.0000   1.0000   1.0000   0.0000   0.0000   0.0000
     0.0000   0.0000   0.0000   0.0000   0.0000   0.0000   0.0000   0.0000
     0.0000   0.0000   0.0000   0.0000   0.0000   0.0000

          k = 0.5291 0.0000 0.0000 (  4007 PWs)   bands (ev):

   -58.0586 -32.3168 -32.1913 -32.1429  -9.3127  -9.1320  -2.2271  -2.2018
    -0.8047  -0.3199  -0.3034   1.0264   2.4408   4.8738   5.7972   5.9071
     7.4270  10.1019  11.0089  11.9766  12.0716  13.2871  14.1951  14.3262
    14.7093  15.3042  15.4957  15.9284  16.4354  16.6980

     occupation numbers 
     1.0000   1.0000   1.0000   1.0000   1.0000   1.0000   1.0000   1.0000
     1.0000   1.0000   1.0000   1.0000   1.0000   0.0000   0.0000   0.0000
     0.0000   0.0000   0.0000   0.0000   0.0000   0.0000   0.0000   0.0000
     0.0000   0.0000   0.0000   0.0000   0.0000   0.0000

          k = 0.5456 0.0000 0.0000 (  4007 PWs)   bands (ev):

   -58.0579 -32.3160 -32.2005 -32.1415  -9.2684  -9.1112  -2.3003  -2.1591
    -0.8246  -0.4123  -0.2768   0.9567   2.5079   4.8105   5.9009   5.9067
     7.4627  10.0373  10.9369  12.0681  12.1979  13.4348  14.2343  14.3981
    14.6686  15.3223  15.4371  15.9349  16.3252  16.5497

     occupation numbers 
     1.0000   1.0000   1.0000   1.0000   1.0000   1.0000   1.0000   1.0000
     1.0000   1.0000   1.0000   1.0000   1.0000   0.0000   0.0000   0.0000
     0.0000   0.0000   0.0000   0.0000   0.0000   0.0000   0.0000   0.0000
     0.0000   0.0000   0.0000   0.0000   0.0000   0.0000

          k = 0.5621 0.0000 0.0000 (  4015 PWs)   bands (ev):

   -58.0573 -32.3141 -32.2097 -32.1404  -9.2303  -9.0930  -2.3638  -2.1057
    -0.8571  -0.5103  -0.2320   0.8897   2.5744   4.7427   5.9013   5.9995
     7.4980   9.9855  10.8473  12.1560  12.3543  13.5876  14.2602  14.4586
    14.6179  15.3373  15.3657  15.9563  16.2197  16.4347

     occupation numbers 
     1.0000   1.0000   1.0000   1.0000   1.0000   1.0000   1.0000   1.0000
     1.0000   1.0000   1.0000   1.0000   1.0000   0.0000   0.0000   0.0000
     0.0000   0.0000   0.0000   0.0000   0.0000   0.0000   0.0000   0.0000
     0.0000   0.0000   0.0000   0.0000   0.0000   0.0000

          k = 0.5787 0.0000 0.0000 (  4013 PWs)   bands (ev):

   -58.0568 -32.3111 -32.2187 -32.1394  -9.1987  -9.0776  -2.4175  -2.0423
    -0.9065  -0.5912  -0.1870   0.8269   2.6377   4.6747   5.8923   6.0890
     7.5319   9.9495  10.7508  12.2380  12.5245  13.7412  14.2725  14.4993
    14.5633  15.2997  15.3621  15.9645  16.1133  16.3528

     occupation numbers 
     1.0000   1.0000   1.0000   1.0000   1.0000   1.0000   1.0000   1.0000
     1.0000   1.0000   1.0000   1.0000   1.0000   0.0000   0.0000   0.0000
     0.0000   0.0000   0.0000   0.0000   0.0000   0.0000   0.0000   0.0000
     0.0000   0.0000   0.0000   0.0000   0.0000   0.0000

          k = 0.5952 0.0000 0.0000 (  4009 PWs)   bands (ev):

   -58.0564 -32.3071 -32.2275 -32.1386  -9.1734  -9.0650  -2.4611  -1.9708
    -0.9738  -0.6510  -0.1440   0.7704   2.6950   4.6110   5.8813   6.1661
     7.5627   9.9315  10.6539  12.3111  12.6955  13.8886  14.2674  14.5140
    14.5231  15.2462  15.4025  15.9438  16.0174  16.2877

     occupation numbers 
     1.0000   1.0000   1.0000   1.0000   1.0000   1.0000   1.0000   1.0000
     1.0000   1.0000   1.0000   1.0000   1.0000   0.0000   0.0000   0.0000
     0.0000   0.0000   0.0000   0.0000   0.0000   0.0000   0.0000   0.0000
     0.0000   0.0000   0.0000   0.0000   0.0000   0.0000

          k = 0.6117 0.0000 0.0000 (  4023 PWs)   bands (ev):

   -58.0561 -32.3026 -32.2357 -32.1380  -9.1542  -9.0553  -2.4947  -1.8946
    -1.0528  -0.6919  -0.1058   0.7223   2.7431   4.5560   5.8699   6.2279
     7.5891   9.9322  10.5608  12.3721  12.8544  14.0176  14.2460  14.4821
    14.5375  15.2082  15.4519  15.8904  15.9484  16.2231

     occupation numbers 
     1.0000   1.0000   1.0000   1.0000   1.0000   1.0000   1.0000   1.0000
     1.0000   1.0000   1.0000   1.0000   1.0000   0.0000   0.0000   0.0000
     0.0000   0.0000   0.0000   0.0000   0.0000   0.0000   0.0000   0.0000
     0.0000   0.0000   0.0000   0.0000   0.0000   0.0000

          k = 0.6283 0.0000 0.0000 (  4031 PWs)   bands (ev):

   -58.0559 -32.2980 -32.2429 -32.1376  -9.1410  -9.0485  -2.5184  -1.8203
    -1.1313  -0.7191  -0.0754   0.6854   2.7794   4.5137   5.8599   6.2725
     7.6094   9.9494  10.4767  12.4177  12.9855  14.1100  14.2198  14.4807
    14.5455  15.1867  15.4974  15.8135  15.9203  16.1494

     occupation numbers 
     1.0000   1.0000   1.0000   1.0000   1.0000   1.0000   1.0000   1.0000
     1.0000   1.0000   1.0000   1.0000   1.0000   0.0000   0.0000   0.0000
     0.0000   0.0000   0.0000   0.0000   0.0000   0.0000   0.0000   0.0000
     0.0000   0.0000   0.0000   0.0000   0.0000   0.0000

          k = 0.6448 0.0000 0.0000 (  4035 PWs)   bands (ev):

   -58.0558 -32.2941 -32.2483 -32.1373  -9.1334  -9.0445  -2.5323  -1.7609
    -1.1927  -0.7359  -0.0558   0.6623   2.8017   4.4872   5.8528   6.2992
     7.6225   9.9748  10.4112  12.4455  13.0716  14.1558  14.2035  14.5063
    14.5468  15.1796  15.5304  15.7377  15.9373  16.0662

     occupation numbers 
     1.0000   1.0000   1.0000   1.0000   1.0000   1.0000   1.0000   1.0000
     1.0000   1.0000   1.0000   1.0000   1.0000   0.0000   0.0000   0.0000
     0.0000   0.0000   0.0000   0.0000   0.0000   0.0000   0.0000   0.0000
     0.0000   0.0000   0.0000   0.0000   0.0000   0.0000

          k = 0.6613 0.0000 0.0000 (  4035 PWs)   bands (ev):

   -58.0557 -32.2924 -32.2505 -32.1373  -9.1310  -9.0432  -2.5369  -1.7369
    -1.2167  -0.7421  -0.0491   0.6546   2.8091   4.4784   5.8501   6.3080
     7.6270   9.9891  10.3836  12.4547  13.1008  14.1675  14.2009  14.5243
    14.5449  15.1791  15.5456  15.7032  15.9864  15.9903

     occupation numbers 
     1.0000   1.0000   1.0000   1.0000   1.0000   1.0000   1.0000   1.0000
     1.0000   1.0000   1.0000   1.0000   1.0000   0.0000   0.0000   0.0000
     0.0000   0.0000   0.0000   0.0000   0.0000   0.0000   0.0000   0.0000
     0.0000   0.0000   0.0000   0.0000   0.0000   0.0000

          k = 0.6531 0.0143 0.0000 (  4031 PWs)   bands (ev):

   -58.0558 -32.2942 -32.2482 -32.1373  -9.1333  -9.0444  -2.5325  -1.7614
    -1.1943  -0.7338  -0.0555   0.6618   2.8022   4.4870   5.8533   6.2997
     7.6222   9.9696  10.4158  12.4462  13.0747  14.1570  14.1949  14.4975
    14.5506  15.1826  15.5169  15.7443  15.9560  16.0624

     occupation numbers 
     1.0000   1.0000   1.0000   1.0000   1.0000   1.0000   1.0000   1.0000
     1.0000   1.0000   1.0000   1.0000   1.0000   0.0000   0.0000   0.0000
     0.0000   0.0000   0.0000   0.0000   0.0000   0.0000   0.0000   0.0000
     0.0000   0.0000   0.0000   0.0000   0.0000   0.0000

          k = 0.6448 0.0286 0.0000 (  4027 PWs)   bands (ev):

   -58.0559 -32.2988 -32.2423 -32.1375  -9.1397  -9.0480  -2.5197  -1.8241
    -1.1447  -0.7025  -0.0731   0.6817   2.7830   4.5115   5.8634   6.2763
     7.6074   9.9170  10.5054  12.4227  13.0066  14.1159  14.1631  14.4217
    14.5680  15.2085  15.4196  15.8588  16.0019  16.1577

     occupation numbers 
     1.0000   1.0000   1.0000   1.0000   1.0000   1.0000   1.0000   1.0000
     1.0000   1.0000   1.0000   1.0000   1.0000   0.0000   0.0000   0.0000
     0.0000   0.0000   0.0000   0.0000   0.0000   0.0000   0.0000   0.0000
     0.0000   0.0000   0.0000   0.0000   0.0000   0.0000

          k = 0.6365 0.0430 0.0000 (  4023 PWs)   bands (ev):

   -58.0560 -32.3050 -32.2340 -32.1379  -9.1498  -9.0537  -2.4992  -1.9069
    -1.0975  -0.6373  -0.0988   0.7104   2.7544   4.5493   5.8816   6.2399
     7.5824   9.8469  10.6345  12.3878  12.9107  14.0143  14.1008  14.3385
    14.5800  15.2713  15.2817  16.0216  16.0966  16.2883

     occupation numbers 
     1.0000   1.0000   1.0000   1.0000   1.0000   1.0000   1.0000   1.0000
     1.0000   1.0000   1.0000   1.0000   1.0000   0.0000   0.0000   0.0000
     0.0000   0.0000   0.0000   0.0000   0.0000   0.0000   0.0000   0.0000
     0.0000   0.0000   0.0000   0.0000   0.0000   0.0000

          k = 0.6283 0.0573 0.0000 (  4037 PWs)   bands (ev):

   -58.0563 -32.3119 -32.2245 -32.1383  -9.1629  -9.0613  -2.4717  -1.9981
    -1.0689  -0.5341  -0.1294   0.7445   2.7197   4.5968   5.9088   6.1929
     7.5474   9.7698  10.7903  12.3451  12.7978  13.8383  14.0153  14.2824
    14.5578  15.1456  15.3695  16.1989  16.2112  16.4717

     occupation numbers 
     1.0000   1.0000   1.0000   1.0000   1.0000   1.0000   1.0000   1.0000
     1.0000   1.0000   1.0000   1.0000   1.0000   0.0000   0.0000   0.0000
     0.0000   0.0000   0.0000   0.0000   0.0000   0.0000   0.0000   0.0000
     0.0000   0.0000   0.0000   0.0000   0.0000   0.0000

          k = 0.6200 0.0716 0.0000 (  4037 PWs)   bands (ev):

   -58.0565 -32.3190 -32.2141 -32.1388  -9.1785  -9.0704  -2.4381  -2.0919
    -1.0587  -0.3997  -0.1621   0.7805   2.6819   4.6508   5.9456   6.1375
     7.5029   9.6907  10.9652  12.2978  12.6745  13.6147  13.9123  14.2441
    14.4793  15.0430  15.4967  16.2986  16.4122  16.7048

     occupation numbers 
     1.0000   1.0000   1.0000   1.0000   1.0000   1.0000   1.0000   1.0000
     1.0000   1.0000   1.0000   1.0000   1.0000   0.0000   0.0000   0.0000
     0.0000   0.0000   0.0000   0.0000   0.0000   0.0000   0.0000   0.0000
     0.0000   0.0000   0.0000   0.0000   0.0000   0.0000

          k = 0.6117 0.0859 0.0000 (  4033 PWs)   bands (ev):

   -58.0568 -32.3260 -32.2034 -32.1394  -9.1960  -9.0807  -2.3995  -2.1850
    -1.0607  -0.2441  -0.1949   0.8161   2.6433   4.7082   5.9925   6.0761
     7.4497   9.6119  11.1541  12.2486  12.5448  13.3676  13.7936  14.2113
    14.3525  14.9780  15.6469  16.3990  16.6100  16.9750

     occupation numbers 
     1.0000   1.0000   1.0000   1.0000   1.0000   1.0000   1.0000   1.0000
     1.0000   1.0000   1.0000   1.0000   1.0000   0.0000   0.0000   0.0000
     0.0000   0.0000   0.0000   0.0000   0.0000   0.0000   0.0000   0.0000
     0.0000   0.0000   0.0000   0.0000   0.0000   0.0000

          k = 0.6035 0.1002 0.0000 (  4023 PWs)   bands (ev):

   -58.0571 -32.3328 -32.1925 -32.1400  -9.2149  -9.0920  -2.3568  -2.2756
    -1.0700  -0.2259  -0.0749   0.8493   2.6057   4.7663   6.0108   6.0495
     7.3892   9.5348  11.3523  12.1992  12.4114  13.1098  13.6595  14.1795
    14.2081  14.9328  15.8143  16.5023  16.7857  17.2723

     occupation numbers 
     1.0000   1.0000   1.0000   1.0000   1.0000   1.0000   1.0000   1.0000
     1.0000   1.0000   1.0000   1.0000   1.0000   0.0000   0.0000   0.0000
     0.0000   0.0000   0.0000   0.0000   0.0000   0.0000   0.0000   0.0000
     0.0000   0.0000   0.0000   0.0000   0.0000   0.0000

          k = 0.5952 0.1146 0.0000 (  4020 PWs)   bands (ev):

   -58.0575 -32.3394 -32.1816 -32.1407  -9.2347  -9.1039  -2.3625  -2.3113
    -1.0836  -0.2541   0.1030   0.8789   2.5702   4.8229   5.9437   6.1165
     7.3228   9.4602  11.5540  12.1506  12.2778  12.8487  13.5118  14.0712
    14.1478  14.8930  15.9935  16.6081  16.9167  17.5894

     occupation numbers 
     1.0000   1.0000   1.0000   1.0000   1.0000   1.0000   1.0000   1.0000
     1.0000   1.0000   1.0000   1.0000   1.0000   0.0000   0.0000   0.0000
     0.0000   0.0000   0.0000   0.0000   0.0000   0.0000   0.0000   0.0000
     0.0000   0.0000   0.0000   0.0000   0.0000   0.0000

          k = 0.5869 0.1289 0.0000 (  4016 PWs)   bands (ev):

   -58.0578 -32.3456 -32.1710 -32.1414  -9.2548  -9.1162  -2.4449  -2.2642
    -1.0996  -0.2786   0.2858   0.9039   2.5373   4.8759   5.8768   6.1929
     7.2523   9.3884  11.7440  12.1025  12.1560  12.5900  13.3574  13.9522
    14.1165  14.8525  16.1782  16.7147  16.9936  17.8878

     occupation numbers 
     1.0000   1.0000   1.0000   1.0000   1.0000   1.0000   1.0000   1.0000
     1.0000   1.0000   1.0000   1.0000   1.0000   0.0000   0.0000   0.0000
     0.0000   0.0000   0.0000   0.0000   0.0000   0.0000   0.0000   0.0000
     0.0000   0.0000   0.0000   0.0000   0.0000   0.0000

          k = 0.5787 0.1432 0.0000 (  4016 PWs)   bands (ev):

   -58.0582 -32.3514 -32.1607 -32.1421  -9.2748  -9.1285  -2.5219  -2.2167
    -1.1169  -0.2989   0.4708   0.9240   2.5068   4.9237   5.8118   6.2777
     7.1796   9.3200  11.8440  12.0511  12.1207  12.3418  13.2074  13.8522
    14.0858  14.8096  16.3591  16.8194  17.0367  18.0933

     occupation numbers 
     1.0000   1.0000   1.0000   1.0000   1.0000   1.0000   1.0000   1.0000
     1.0000   1.0000   1.0000   1.0000   1.0000   0.0000   0.0000   0.0000
     0.0000   0.0000   0.0000   0.0000   0.0000   0.0000   0.0000   0.0000
     0.0000   0.0000   0.0000   0.0000   0.0000   0.0000

          k = 0.5704 0.1575 0.0000 (  4012 PWs)   bands (ev):

   -58.0585 -32.3567 -32.1510 -32.1428  -9.2942  -9.1405  -2.5931  -2.1700
    -1.1347  -0.3144   0.6554   0.9389   2.4783   4.9647   5.7509   6.3694
     7.1067   9.2553  11.7634  11.9701  12.1339  12.2566  13.0748  13.7693
    14.0564  14.7643  16.5196  16.9190  17.0812  18.3360

     occupation numbers 
     1.0000   1.0000   1.0000   1.0000   1.0000   1.0000   1.0000   1.0000
     1.0000   1.0000   1.0000   1.0000   1.0000   0.0000   0.0000   0.0000
     0.0000   0.0000   0.0000   0.0000   0.0000   0.0000   0.0000   0.0000
     0.0000   0.0000   0.0000   0.0000   0.0000   0.0000

          k = 0.5621 0.1718 0.0000 (  4022 PWs)   bands (ev):

   -58.0588 -32.3616 -32.1434 -32.1419  -9.3127  -9.1520  -2.6580  -2.1253
    -1.1522  -0.3254   0.8374   0.9490   2.4507   4.9977   5.6958   6.4660
     7.0358   9.1945  11.6300  11.7928  12.0361  12.4209  12.9796  13.7017
    14.0287  14.7167  16.6347  17.0102  17.1635  18.6004

     occupation numbers 
     1.0000   1.0000   1.0000   1.0000   1.0000   1.0000   1.0000   1.0000
     1.0000   1.0000   1.0000   1.0000   1.0000   0.0000   0.0000   0.0000
     0.0000   0.0000   0.0000   0.0000   0.0000   0.0000   0.0000   0.0000
     0.0000   0.0000   0.0000   0.0000   0.0000   0.0000

          k = 0.5539 0.1862 0.0000 (  4028 PWs)   bands (ev):

   -58.0591 -32.3659 -32.1441 -32.1336  -9.3299  -9.1628  -2.7162  -2.0837
    -1.1690  -0.3319   0.9545   1.0145   2.4230   5.0218   5.6484   6.5643
     6.9697   9.1380  11.4909  11.5785  11.9923  12.5271  12.9631  13.6495
    14.0032  14.6672  16.6927  17.0895  17.2996  18.7253

     occupation numbers 
     1.0000   1.0000   1.0000   1.0000   1.0000   1.0000   1.0000   1.0000
     1.0000   1.0000   1.0000   1.0000   1.0000   0.0000   0.0000   0.0000
     0.0000   0.0000   0.0000   0.0000   0.0000   0.0000   0.0000   0.0000
     0.0000   0.0000   0.0000   0.0000   0.0000   0.0000

          k = 0.5456 0.2005 0.0000 (  4040 PWs)   bands (ev):

   -58.0594 -32.3698 -32.1446 -32.1262  -9.3454  -9.1726  -2.7673  -2.0462
    -1.1845  -0.3344   0.9564   1.1844   2.3936   5.0367   5.6097   6.6589
     6.9123   9.0864  11.3575  11.3716  11.9617  12.5349  13.0514  13.6164
    13.9803  14.6154  16.7110  17.1540  17.4721  18.6450

     occupation numbers 
     1.0000   1.0000   1.0000   1.0000   1.0000   1.0000   1.0000   1.0000
     1.0000   1.0000   1.0000   1.0000   1.0000   0.0000   0.0000   0.0000
     0.0000   0.0000   0.0000   0.0000   0.0000   0.0000   0.0000   0.0000
     0.0000   0.0000   0.0000   0.0000   0.0000   0.0000

          k = 0.5373 0.2148 0.0000 (  4042 PWs)   bands (ev):

   -58.0597 -32.3731 -32.1451 -32.1197  -9.3590  -9.1812  -2.8111  -2.0135
    -1.1983  -0.3338   0.9553   1.3446   2.3611   5.0432   5.5802   6.7353
     6.8765   9.0403  11.1826  11.2360  11.9375  12.4935  13.1786  13.6133
    13.9603  14.5605  16.7107  17.2014  17.6566  18.5557

     occupation numbers 
     1.0000   1.0000   1.0000   1.0000   1.0000   1.0000   1.0000   1.0000
     1.0000   1.0000   1.0000   1.0000   1.0000   0.0000   0.0000   0.0000
     0.0000   0.0000   0.0000   0.0000   0.0000   0.0000   0.0000   0.0000
     0.0000   0.0000   0.0000   0.0000   0.0000   0.0000

          k = 0.5291 0.2291 0.0000 (  4036 PWs)   bands (ev):

   -58.0599 -32.3757 -32.1456 -32.1143  -9.3705  -9.1884  -2.8472  -1.9861
    -1.2101  -0.3310   0.9523   1.4926   2.3243   5.0430   5.5594   6.7538
     6.8990   9.0005  11.0174  11.1309  11.9184  12.4452  13.2757  13.6608
    13.9436  14.5013  16.7035  17.2314  17.8360  18.4731

     occupation numbers 
     1.0000   1.0000   1.0000   1.0000   1.0000   1.0000   1.0000   1.0000
     1.0000   1.0000   1.0000   1.0000   1.0000   0.0000   0.0000   0.0000
     0.0000   0.0000   0.0000   0.0000   0.0000   0.0000   0.0000   0.0000
     0.0000   0.0000   0.0000   0.0000   0.0000   0.0000

          k = 0.5208 0.2434 0.0000 (  4028 PWs)   bands (ev):

   -58.0600 -32.3778 -32.1459 -32.1100  -9.3796  -9.1942  -2.8756  -1.9645
    -1.2196  -0.3271   0.9486   1.6251   2.2827   5.0387   5.5458   6.7314
     6.9593   8.9681  10.8813  11.0458  11.9038  12.4038  13.3196  13.7630
    13.9303  14.4361  16.6949  17.2457  17.9966  18.4050

     occupation numbers 
     1.0000   1.0000   1.0000   1.0000   1.0000   1.0000   1.0000   1.0000
     1.0000   1.0000   1.0000   1.0000   1.0000   0.0000   0.0000   0.0000
     0.0000   0.0000   0.0000   0.0000   0.0000   0.0000   0.0000   0.0000
     0.0000   0.0000   0.0000   0.0000   0.0000   0.0000

          k = 0.5125 0.2578 0.0000 (  4024 PWs)   bands (ev):

   -58.0602 -32.3794 -32.1461 -32.1069  -9.3863  -9.1984  -2.8959  -1.9489
    -1.2265  -0.3234   0.9450   1.7372   2.2381   5.0332   5.5376   6.7079
     7.0138   8.9441  10.7793  10.9833  11.8935  12.3732  13.3320  13.8886
    13.9207  14.3635  16.6875  17.2491  18.1255  18.3555

     occupation numbers 
     1.0000   1.0000   1.0000   1.0000   1.0000   1.0000   1.0000   1.0000
     1.0000   1.0000   1.0000   1.0000   1.0000   0.0000   0.0000   0.0000
     0.0000   0.0000   0.0000   0.0000   0.0000   0.0000   0.0000   0.0000
     0.0000   0.0000   0.0000   0.0000   0.0000   0.0000

          k = 0.5043 0.2721 0.0000 (  4022 PWs)   bands (ev):

   -58.0602 -32.3803 -32.1463 -32.1051  -9.3903  -9.2010  -2.9081  -1.9396
    -1.2307  -0.3207   0.9425   1.8191   2.1978   5.0288   5.5333   6.6923
     7.0498   8.9292  10.7161  10.9451  11.8873  12.3545  13.3338  13.9149
    14.0063  14.2863  16.6826  17.2475  18.2097  18.3259

     occupation numbers 
     1.0000   1.0000   1.0000   1.0000   1.0000   1.0000   1.0000   1.0000
     1.0000   1.0000   1.0000   1.0000   1.0000   0.0000   0.0000   0.0000
     0.0000   0.0000   0.0000   0.0000   0.0000   0.0000   0.0000   0.0000
     0.0000   0.0000   0.0000   0.0000   0.0000   0.0000

          k = 0.4960 0.2864 0.0000 (  4034 PWs)   bands (ev):

   -58.0603 -32.3806 -32.1463 -32.1045  -9.3917  -9.2019  -2.9122  -1.9364
    -1.2321  -0.3197   0.9416   1.8513   2.1797   5.0271   5.5320   6.6870
     7.0623   8.9242  10.6946  10.9323  11.8853  12.3483  13.3337  13.9129
    14.0695  14.2379  16.6809  17.2463  18.2392  18.3161

     occupation numbers 
     1.0000   1.0000   1.0000   1.0000   1.0000   1.0000   1.0000   1.0000
     1.0000   1.0000   1.0000   1.0000   1.0000   0.0000   0.0000   0.0000
     0.0000   0.0000   0.0000   0.0000   0.0000   0.0000   0.0000   0.0000
     0.0000   0.0000   0.0000   0.0000   0.0000   0.0000

          k = 0.4836 0.2792 0.0000 (  4026 PWs)   bands (ev):

   -58.0603 -32.3800 -32.1464 -32.1043  -9.3954  -9.2033  -2.9084  -1.9326
    -1.2303  -0.3179   0.9430   1.8491   2.1753   5.0263   5.5282   6.6842
     7.0612   8.9365  10.6933  10.9225  11.8871  12.3433  13.3332  13.9121
    14.0767  14.2623  16.6904  17.2327  18.2319  18.3204

     occupation numbers 
     1.0000   1.0000   1.0000   1.0000   1.0000   1.0000   1.0000   1.0000
     1.0000   1.0000   1.0000   1.0000   1.0000   0.0000   0.0000   0.0000
     0.0000   0.0000   0.0000   0.0000   0.0000   0.0000   0.0000   0.0000
     0.0000   0.0000   0.0000   0.0000   0.0000   0.0000

          k = 0.4712 0.2721 0.0000 (  4027 PWs)   bands (ev):

   -58.0605 -32.3784 -32.1468 -32.1039  -9.4065  -9.2075  -2.8970  -1.9212
    -1.2250  -0.3124   0.9470   1.8425   2.1623   5.0240   5.5170   6.6758
     7.0579   8.9728  10.6899  10.8938  11.8919  12.3279  13.3351  13.9099
    14.0980  14.3316  16.7186  17.1941  18.2101  18.3307

     occupation numbers 
     1.0000   1.0000   1.0000   1.0000   1.0000   1.0000   1.0000   1.0000
     1.0000   1.0000   1.0000   1.0000   1.0000   0.0000   0.0000   0.0000
     0.0000   0.0000   0.0000   0.0000   0.0000   0.0000   0.0000   0.0000
     0.0000   0.0000   0.0000   0.0000   0.0000   0.0000

          k = 0.4588 0.2649 0.0000 (  4028 PWs)   bands (ev):

   -58.0608 -32.3757 -32.1473 -32.1033  -9.4249  -9.2146  -2.8783  -1.9023
    -1.2163  -0.3032   0.9538   1.8314   2.1415   5.0203   5.4990   6.6617
     7.0524   9.0321  10.6851  10.8480  11.8988  12.3013  13.3464  13.9076
    14.1332  14.4371  16.7643  17.1353  18.1741  18.3407

     occupation numbers 
     1.0000   1.0000   1.0000   1.0000   1.0000   1.0000   1.0000   1.0000
     1.0000   1.0000   1.0000   1.0000   1.0000   0.0000   0.0000   0.0000
     0.0000   0.0000   0.0000   0.0000   0.0000   0.0000   0.0000   0.0000
     0.0000   0.0000   0.0000   0.0000   0.0000   0.0000

          k = 0.4464 0.2578 0.0000 (  4030 PWs)   bands (ev):

   -58.0612 -32.3720 -32.1481 -32.1024  -9.4504  -9.2243  -2.8524  -1.8759
    -1.2046  -0.2904   0.9633   1.8158   2.1139   5.0156   5.4749   6.6418
     7.0446   9.1125  10.6801  10.7880  11.9058  12.2636  13.3724  13.9071
    14.1820  14.5691  16.8258  17.0625  18.1245  18.3424

     occupation numbers 
     1.0000   1.0000   1.0000   1.0000   1.0000   1.0000   1.0000   1.0000
     1.0000   1.0000   1.0000   1.0000   1.0000   0.0000   0.0000   0.0000
     0.0000   0.0000   0.0000   0.0000   0.0000   0.0000   0.0000   0.0000
     0.0000   0.0000   0.0000   0.0000   0.0000   0.0000

          k = 0.4340 0.2506 0.0000 (  4036 PWs)   bands (ev):

   -58.0617 -32.3673 -32.1491 -32.1013  -9.4824  -9.2366  -2.8198  -1.8424
    -1.1906  -0.2739   0.9755   1.7958   2.0808   5.0103   5.4458   6.6161
     7.0345   9.2113  10.6762  10.7168  11.9112  12.2169  13.4145  13.9105
    14.2437  14.7188  16.9005  16.9819  18.0618  18.3282

     occupation numbers 
     1.0000   1.0000   1.0000   1.0000   1.0000   1.0000   1.0000   1.0000
     1.0000   1.0000   1.0000   1.0000   1.0000   0.0000   0.0000   0.0000
     0.0000   0.0000   0.0000   0.0000   0.0000   0.0000   0.0000   0.0000
     0.0000   0.0000   0.0000   0.0000   0.0000   0.0000

          k = 0.4216 0.2434 0.0000 (  4028 PWs)   bands (ev):

   -58.0622 -32.3615 -32.1503 -32.1000  -9.5208  -9.2514  -2.7809  -1.8019
    -1.1747  -0.2539   0.9906   1.7714   2.0441   5.0048   5.4127   6.5845
     7.0221   9.3256  10.6376  10.6746  11.9131  12.1647  13.4706  13.9200
    14.3176  14.8786  16.8999  16.9852  17.9870  18.2929

     occupation numbers 
     1.0000   1.0000   1.0000   1.0000   1.0000   1.0000   1.0000   1.0000
     1.0000   1.0000   1.0000   1.0000   1.0000   0.0000   0.0000   0.0000
     0.0000   0.0000   0.0000   0.0000   0.0000   0.0000   0.0000   0.0000
     0.0000   0.0000   0.0000   0.0000   0.0000   0.0000

          k = 0.4092 0.2363 0.0000 (  4036 PWs)   bands (ev):

   -58.0629 -32.3548 -32.1517 -32.0984  -9.5650  -9.2686  -2.7364  -1.7548
    -1.1580  -0.2303   1.0086   1.7425   2.0056   4.9996   5.3766   6.5470
     7.0071   9.4512  10.5543  10.6763  11.9101  12.1107  13.5369  13.9376
    14.4030  15.0402  16.8236  17.0755  17.9013  18.2348

     occupation numbers 
     1.0000   1.0000   1.0000   1.0000   1.0000   1.0000   1.0000   1.0000
     1.0000   1.0000   1.0000   1.0000   1.0000   0.0000   0.0000   0.0000
     0.0000   0.0000   0.0000   0.0000   0.0000   0.0000   0.0000   0.0000
     0.0000   0.0000   0.0000   0.0000   0.0000   0.0000

          k = 0.3968 0.2291 0.0000 (  4024 PWs)   bands (ev):

   -58.0637 -32.3471 -32.1533 -32.0966  -9.6144  -9.2879  -2.6870  -1.7013
    -1.1411  -0.2032   1.0295   1.7092   1.9674   4.9953   5.3384   6.5036
     6.9897   9.5824  10.4717  10.6819  11.9016  12.0583  13.6086  13.9648
    14.4987  15.1933  16.7622  17.1656  17.8059  18.1561

     occupation numbers 
     1.0000   1.0000   1.0000   1.0000   1.0000   1.0000   1.0000   1.0000
     1.0000   1.0000   1.0000   1.0000   1.0000   0.0000   0.0000   0.0000
     0.0000   0.0000   0.0000   0.0000   0.0000   0.0000   0.0000   0.0000
     0.0000   0.0000   0.0000   0.0000   0.0000   0.0000

          k = 0.3844 0.2220 0.0000 (  4028 PWs)   bands (ev):

   -58.0646 -32.3386 -32.1551 -32.0946  -9.6686  -9.3091  -2.6333  -1.6418
    -1.1250  -0.1727   1.0534   1.6716   1.9318   4.9924   5.2989   6.4545
     6.9695   9.7093  10.3986  10.6916  11.8880  12.0104  13.6813  14.0025
    14.6038  15.3242  16.7280  17.2473  17.7023  18.0629

     occupation numbers 
     1.0000   1.0000   1.0000   1.0000   1.0000   1.0000   1.0000   1.0000
     1.0000   1.0000   1.0000   1.0000   1.0000   0.0000   0.0000   0.0000
     0.0000   0.0000   0.0000   0.0000   0.0000   0.0000   0.0000   0.0000
     0.0000   0.0000   0.0000   0.0000   0.0000   0.0000

          k = 0.3720 0.2148 0.0000 (  4026 PWs)   bands (ev):

   -58.0656 -32.3292 -32.1571 -32.0924  -9.7270  -9.3321  -2.5762  -1.5767
    -1.1105  -0.1389   1.0802   1.6299   1.9009   4.9915   5.2589   6.4000
     6.9466   9.8116  10.3535  10.7047  11.8705  11.9691  13.7504  14.0506
    14.7169  15.4164  16.7355  17.3095  17.5920  17.9645

     occupation numbers 
     1.0000   1.0000   1.0000   1.0000   1.0000   1.0000   1.0000   1.0000
     1.0000   1.0000   1.0000   1.0000   1.0000   0.0000   0.0000   0.0000
     0.0000   0.0000   0.0000   0.0000   0.0000   0.0000   0.0000   0.0000
[...]
    -1.0730   0.0773   1.2582   1.3669   1.8750   5.0292   5.0733   6.0637
     6.7877   9.5754  10.7487  10.8426  11.8426  11.9192  13.8795  14.4120
    15.2446  15.3404  16.9951  17.0085  17.1984  17.7579

     occupation numbers 
     1.0000   1.0000   1.0000   1.0000   1.0000   1.0000   1.0000   1.0000
     1.0000   1.0000   1.0000   1.0000   1.0000   0.0000   0.0000   0.0000
     0.0000   0.0000   0.0000   0.0000   0.0000   0.0000   0.0000   0.0000
     0.0000   0.0000   0.0000   0.0000   0.0000   0.0000

          k = 0.2976 0.1718 0.0000 (  4000 PWs)   bands (ev):

   -58.0728 -32.2587 -32.1716 -32.0759 -10.1335  -9.4955  -2.2314  -1.0934
    -1.0678   0.1291   1.3016   1.3058   1.9015   5.0432   5.0469   5.9887
     6.7465   9.4752  10.7326  10.9612  11.8775  11.9513  13.8336  14.4939
    15.1684  15.4562  16.8499  16.8765  17.2343  17.5683

     occupation numbers 
     1.0000   1.0000   1.0000   1.0000   1.0000   1.0000   1.0000   1.0000
     1.0000   1.0000   1.0000   1.0000   1.0000   0.0000   0.0000   0.0000
     0.0000   0.0000   0.0000   0.0000   0.0000   0.0000   0.0000   0.0000
     0.0000   0.0000   0.0000   0.0000   0.0000   0.0000

          k = 0.2852 0.1647 0.0000 (  4004 PWs)   bands (ev):

   -58.0742 -32.2453 -32.1743 -32.0727 -10.2056  -9.5250  -2.1900  -1.0589
    -1.0016   0.1834   1.2428   1.3469   1.9382   5.0169   5.0681   5.9131
     6.7022   9.3740  10.7039  11.0596  11.9320  11.9995  13.7612  14.5707
    15.1034  15.5564  16.6857  16.7610  17.2629  17.3998

     occupation numbers 
     1.0000   1.0000   1.0000   1.0000   1.0000   1.0000   1.0000   1.0000
     1.0000   1.0000   1.0000   1.0000   1.0000   0.0000   0.0000   0.0000
     0.0000   0.0000   0.0000   0.0000   0.0000   0.0000   0.0000   0.0000
     0.0000   0.0000   0.0000   0.0000   0.0000   0.0000

          k = 0.2728 0.1575 0.0000 (  4012 PWs)   bands (ev):

   -58.0755 -32.2315 -32.1771 -32.0695 -10.2777  -9.5546  -2.1590  -1.0435
    -0.9078   0.2400   1.1785   1.3937   1.9841   4.9951   5.0928   5.8381
     6.6547   9.2734  10.6635  11.1335  12.0054  12.0616  13.6679  14.6364
    15.0532  15.6307  16.5278  16.6495  17.2628  17.2974

     occupation numbers 
     1.0000   1.0000   1.0000   1.0000   1.0000   1.0000   1.0000   1.0000
     1.0000   1.0000   1.0000   1.0000   1.0000   0.0000   0.0000   0.0000
     0.0000   0.0000   0.0000   0.0000   0.0000   0.0000   0.0000   0.0000
     0.0000   0.0000   0.0000   0.0000   0.0000   0.0000

          k = 0.2604 0.1504 0.0000 (  4008 PWs)   bands (ev):

   -58.0770 -32.2176 -32.1800 -32.0663 -10.3493  -9.5841  -2.1404  -1.0193
    -0.8124   0.2987   1.1132   1.4414   2.0377   4.9784   5.1208   5.7647
     6.6042   9.1742  10.6134  11.1811  12.0956  12.1325  13.5626  14.6826
    15.0188  15.6668  16.3888  16.5427  17.1698  17.3430

     occupation numbers 
     1.0000   1.0000   1.0000   1.0000   1.0000   1.0000   1.0000   1.0000
     1.0000   1.0000   1.0000   1.0000   1.0000   0.0000   0.0000   0.0000
     0.0000   0.0000   0.0000   0.0000   0.0000   0.0000   0.0000   0.0000
     0.0000   0.0000   0.0000   0.0000   0.0000   0.0000

          k = 0.2480 0.1432 0.0000 (  4002 PWs)   bands (ev):

   -58.0784 -32.2035 -32.1829 -32.0630 -10.4201  -9.6133  -2.1353  -0.9844
    -0.7157   0.3593   1.0474   1.4892   2.0973   4.9676   5.1519   5.6940
     6.5508   9.0770  10.5559  11.2018  12.1997  12.2046  13.4562  14.6993
    14.9997  15.6544  16.2821  16.4413  17.1309  17.4002

     occupation numbers 
     1.0000   1.0000   1.0000   1.0000   1.0000   1.0000   1.0000   1.0000
     1.0000   1.0000   1.0000   1.0000   1.0000   0.0000   0.0000   0.0000
     0.0000   0.0000   0.0000   0.0000   0.0000   0.0000   0.0000   0.0000
     0.0000   0.0000   0.0000   0.0000   0.0000   0.0000

          k = 0.2356 0.1360 0.0000 (  4004 PWs)   bands (ev):

   -58.0798 -32.1894 -32.1857 -32.0597 -10.4896  -9.6422  -2.1434  -0.9383
    -0.6181   0.4215   0.9818   1.5363   2.1612   4.9634   5.1858   5.6272
     6.4947   8.9822  10.4934  11.1953  12.2703  12.3144  13.3600  14.6777
    14.9953  15.5924  16.2192  16.3459  17.1474  17.4682

     occupation numbers 
     1.0000   1.0000   1.0000   1.0000   1.0000   1.0000   1.0000   1.0000
     1.0000   1.0000   1.0000   1.0000   1.0000   0.0000   0.0000   0.0000
     0.0000   0.0000   0.0000   0.0000   0.0000   0.0000   0.0000   0.0000
     0.0000   0.0000   0.0000   0.0000   0.0000   0.0000

          k = 0.2232 0.1289 0.0000 (  3988 PWs)   bands (ev):

   -58.0812 -32.1885 -32.1753 -32.0565 -10.5575  -9.6704  -2.1635  -0.8817
    -0.5199   0.4850   0.9166   1.5817   2.2274   4.9664   5.2222   5.5654
     6.4361   8.8901  10.4276  11.1610  12.3240  12.4359  13.2833  14.6157
    15.0048  15.4897  16.2054  16.2567  17.2101  17.5452

     occupation numbers 
     1.0000   1.0000   1.0000   1.0000   1.0000   1.0000   1.0000   1.0000
     1.0000   1.0000   1.0000   1.0000   1.0000   0.0000   0.0000   0.0000
     0.0000   0.0000   0.0000   0.0000   0.0000   0.0000   0.0000   0.0000
     0.0000   0.0000   0.0000   0.0000   0.0000   0.0000

          k = 0.2108 0.1217 0.0000 (  3990 PWs)   bands (ev):

   -58.0826 -32.1913 -32.1614 -32.0533 -10.6236  -9.6979  -2.1937  -0.8158
    -0.4213   0.5496   0.8524   1.6242   2.2942   4.9772   5.2608   5.5097
     6.3754   8.8011  10.3603  11.0982  12.3635  12.5592  13.2311  14.5212
    15.0274  15.3596  16.1742  16.2367  17.3058  17.6291

     occupation numbers 
     1.0000   1.0000   1.0000   1.0000   1.0000   1.0000   1.0000   1.0000
     1.0000   1.0000   1.0000   1.0000   1.0000   0.0000   0.0000   0.0000
     0.0000   0.0000   0.0000   0.0000   0.0000   0.0000   0.0000   0.0000
     0.0000   0.0000   0.0000   0.0000   0.0000   0.0000

          k = 0.1984 0.1146 0.0000 (  3988 PWs)   bands (ev):

   -58.0840 -32.1941 -32.1477 -32.0501 -10.6874  -9.7245  -2.2316  -0.7425
    -0.3226   0.6148   0.7895   1.6628   2.3598   4.9963   5.3011   5.4613
     6.3128   8.7151  10.2928  11.0076  12.3910  12.6779  13.2030  14.4093
    15.0620  15.2137  16.0984  16.3035  17.4227  17.7182

     occupation numbers 
     1.0000   1.0000   1.0000   1.0000   1.0000   1.0000   1.0000   1.0000
     1.0000   1.0000   1.0000   1.0000   1.0000   0.0000   0.0000   0.0000
     0.0000   0.0000   0.0000   0.0000   0.0000   0.0000   0.0000   0.0000
     0.0000   0.0000   0.0000   0.0000   0.0000   0.0000

          k = 0.1860 0.1074 0.0000 (  3992 PWs)   bands (ev):

   -58.0853 -32.1968 -32.1344 -32.0471 -10.7487  -9.7501  -2.2750  -0.6637
    -0.2239   0.6803   0.7285   1.6961   2.4227   5.0240   5.3428   5.4211
     6.2489   8.6325  10.2259  10.8924  12.4110  12.7820  13.1945  14.2993
    15.0604  15.1067  16.0294  16.3949  17.5524  17.8107

     occupation numbers 
     1.0000   1.0000   1.0000   1.0000   1.0000   1.0000   1.0000   1.0000
     1.0000   1.0000   1.0000   1.0000   1.0000   0.0000   0.0000   0.0000
     0.0000   0.0000   0.0000   0.0000   0.0000   0.0000   0.0000   0.0000
     0.0000   0.0000   0.0000   0.0000   0.0000   0.0000

          k = 0.1736 0.1002 0.0000 (  4000 PWs)   bands (ev):

   -58.0866 -32.1994 -32.1214 -32.0441 -10.8072  -9.7745  -2.3220  -0.5810
    -0.1253   0.6697   0.7457   1.7230   2.4818   5.0603   5.3854   5.3899
     6.1840   8.5533  10.1608  10.7571  12.4275  12.8573  13.1996  14.2132
    14.9052  15.1592  15.9671  16.5015  17.6890  17.9050

     occupation numbers 
     1.0000   1.0000   1.0000   1.0000   1.0000   1.0000   1.0000   1.0000
     1.0000   1.0000   1.0000   1.0000   1.0000   0.0000   0.0000   0.0000
     0.0000   0.0000   0.0000   0.0000   0.0000   0.0000   0.0000   0.0000
     0.0000   0.0000   0.0000   0.0000   0.0000   0.0000

          k = 0.1612 0.0931 0.0000 (  4010 PWs)   bands (ev):

   -58.0878 -32.2019 -32.1090 -32.0412 -10.8627  -9.7978  -2.3708  -0.4962
    -0.0270   0.6134   0.8105   1.7424   2.5359   5.1048   5.3682   5.4284
     6.1189   8.4776  10.0979  10.6076  12.4426  12.8870  13.2140  14.1728
    14.7519  15.2168  15.9115  16.6155  17.8285  17.9998

     occupation numbers 
     1.0000   1.0000   1.0000   1.0000   1.0000   1.0000   1.0000   1.0000
     1.0000   1.0000   1.0000   1.0000   1.0000   0.0000   0.0000   0.0000
     0.0000   0.0000   0.0000   0.0000   0.0000   0.0000   0.0000   0.0000
     0.0000   0.0000   0.0000   0.0000   0.0000   0.0000

          k = 0.1488 0.0859 0.0000 (  4010 PWs)   bands (ev):

   -58.0890 -32.2042 -32.0971 -32.0385 -10.9150  -9.8197  -2.4200  -0.4108
     0.0709   0.5600   0.8742   1.7534   2.5846   5.1571   5.3564   5.4712
     6.0540   8.4054  10.0379  10.4494  12.4563  12.8609  13.2353  14.1922
    14.6032  15.2763  15.8623  16.7298  17.9681  18.0939

     occupation numbers 
     1.0000   1.0000   1.0000   1.0000   1.0000   1.0000   1.0000   1.0000
     1.0000   1.0000   1.0000   1.0000   1.0000   0.0000   0.0000   0.0000
     0.0000   0.0000   0.0000   0.0000   0.0000   0.0000   0.0000   0.0000
     0.0000   0.0000   0.0000   0.0000   0.0000   0.0000

          k = 0.1364 0.0788 0.0000 (  4016 PWs)   bands (ev):

   -58.0901 -32.2065 -32.0858 -32.0359 -10.9638  -9.8402  -2.4684  -0.3262
     0.1683   0.5098   0.9362   1.7553   2.6275   5.2160   5.3542   5.5134
     5.9902   8.3367   9.9812  10.2879  12.4679  12.7843  13.2625  14.2684
    14.4612  15.3350  15.8191  16.8379  18.1053  18.1425

     occupation numbers 
     1.0000   1.0000   1.0000   1.0000   1.0000   1.0000   1.0000   1.0000
     1.0000   1.0000   1.0000   1.0000   1.0000   0.0000   0.0000   0.0000
     0.0000   0.0000   0.0000   0.0000   0.0000   0.0000   0.0000   0.0000
     0.0000   0.0000   0.0000   0.0000   0.0000   0.0000

          k = 0.1240 0.0716 0.0000 (  4020 PWs)   bands (ev):

   -58.0911 -32.2086 -32.0752 -32.0335 -11.0090  -9.8591  -2.5151  -0.2437
     0.2650   0.4630   0.9961   1.7478   2.6645   5.2803   5.3610   5.5544
     5.9280   8.2718   9.9283  10.1273  12.4761  12.6734  13.2953  14.3272
    14.3868  15.3903  15.7818  16.9332  18.1534  18.2383

     occupation numbers 
     1.0000   1.0000   1.0000   1.0000   1.0000   1.0000   1.0000   1.0000
     1.0000   1.0000   1.0000   1.0000   1.0000   0.0000   0.0000   0.0000
     0.0000   0.0000   0.0000   0.0000   0.0000   0.0000   0.0000   0.0000
     0.0000   0.0000   0.0000   0.0000   0.0000   0.0000

          k = 0.1116 0.0644 0.0000 (  4007 PWs)   bands (ev):

   -58.0921 -32.2105 -32.0654 -32.0313 -11.0504  -9.8765  -2.5592  -0.1644
     0.3611   0.4200   1.0531   1.7307   2.6960   5.3485   5.3759   5.5937
     5.8683   8.2105   9.8795   9.9716  12.4804  12.5447  13.3333  14.2026
    14.5320  15.4401  15.7498  17.0106  18.1910  18.3630

     occupation numbers 
     1.0000   1.0000   1.0000   1.0000   1.0000   1.0000   1.0000   1.0000
     1.0000   1.0000   1.0000   1.0000   1.0000   0.0000   0.0000   0.0000
     0.0000   0.0000   0.0000   0.0000   0.0000   0.0000   0.0000   0.0000
     0.0000   0.0000   0.0000   0.0000   0.0000   0.0000

          k = 0.0992 0.0573 0.0000 (  4005 PWs)   bands (ev):

   -58.0930 -32.2122 -32.0565 -32.0293 -11.0879  -9.8922  -2.6002  -0.0897
     0.3809   0.4562   1.1066   1.7043   2.7222   5.3975   5.4186   5.6307
     5.8119   8.1531   9.8239   9.8349  12.4101  12.4808  13.3755  14.0884
    14.6921  15.4830  15.7228  17.0676  18.2554  18.4466

     occupation numbers 
     1.0000   1.0000   1.0000   1.0000   1.0000   1.0000   1.0000   1.0000
     1.0000   1.0000   1.0000   1.0000   1.0000   0.0000   0.0000   0.0000
     0.0000   0.0000   0.0000   0.0000   0.0000   0.0000   0.0000   0.0000
     0.0000   0.0000   0.0000   0.0000   0.0000   0.0000

          k = 0.0868 0.0501 0.0000 (  4003 PWs)   bands (ev):

   -58.0938 -32.2138 -32.0485 -32.0274 -11.1213  -9.9062  -2.6374  -0.0205
     0.3459   0.5501   1.1559   1.6691   2.7437   5.4238   5.4886   5.6649
     5.7595   8.0999   9.6870   9.7950  12.2779  12.4777  13.4204  13.9855
    14.8586  15.5183  15.7003  17.1053  18.3429  18.5266

     occupation numbers 
     1.0000   1.0000   1.0000   1.0000   1.0000   1.0000   1.0000   1.0000
     1.0000   1.0000   1.0000   1.0000   1.0000   0.0000   0.0000   0.0000
     0.0000   0.0000   0.0000   0.0000   0.0000   0.0000   0.0000   0.0000
     0.0000   0.0000   0.0000   0.0000   0.0000   0.0000

          k = 0.0744 0.0430 0.0000 (  4007 PWs)   bands (ev):

   -58.0944 -32.2152 -32.0414 -32.0258 -11.1504  -9.9185  -2.6704   0.0419
     0.3153   0.6426   1.2004   1.6260   2.7610   5.4529   5.5564   5.6957
     5.7121   8.0511   9.5633   9.7599  12.1541  12.4721  13.4662  13.8947
    15.0247  15.5457  15.6820  17.1272  18.4466  18.6032

     occupation numbers 
     1.0000   1.0000   1.0000   1.0000   1.0000   1.0000   1.0000   1.0000
     1.0000   1.0000   1.0000   1.0000   1.0000   0.0000   0.0000   0.0000
     0.0000   0.0000   0.0000   0.0000   0.0000   0.0000   0.0000   0.0000
     0.0000   0.0000   0.0000   0.0000   0.0000   0.0000

          k = 0.0620 0.0358 0.0000 (  4003 PWs)   bands (ev):

   -58.0950 -32.2164 -32.0354 -32.0244 -11.1753  -9.9289  -2.6988   0.0967
     0.2891   0.7330   1.2395   1.5760   2.7745   5.4825   5.6195   5.6703
     5.7227   8.0074   9.4550   9.7298  12.0427  12.4650  13.5105  13.8166
    15.1839  15.5658  15.6673  17.1381  18.5580  18.6768

     occupation numbers 
     1.0000   1.0000   1.0000   1.0000   1.0000   1.0000   1.0000   1.0000
     1.0000   1.0000   1.0000   1.0000   1.0000   0.0000   0.0000   0.0000
     0.0000   0.0000   0.0000   0.0000   0.0000   0.0000   0.0000   0.0000
     0.0000   0.0000   0.0000   0.0000   0.0000   0.0000

          k = 0.0496 0.0286 0.0000 (  4005 PWs)   bands (ev):

   -58.0955 -32.2174 -32.0304 -32.0233 -11.1958  -9.9375  -2.7225   0.1429
     0.2675   0.8207   1.2724   1.5205   2.7849   5.5105   5.6350   5.6756
     5.7455   7.9696   9.3640   9.7049  11.9472  12.4575  13.5511  13.7519
    15.3298  15.5795  15.6559  17.1420  18.6682  18.7478

     occupation numbers 
     1.0000   1.0000   1.0000   1.0000   1.0000   1.0000   1.0000   1.0000
     1.0000   1.0000   1.0000   1.0000   1.0000   0.0000   0.0000   0.0000
     0.0000   0.0000   0.0000   0.0000   0.0000   0.0000   0.0000   0.0000
     0.0000   0.0000   0.0000   0.0000   0.0000   0.0000

          k = 0.0372 0.0215 0.0000 (  3997 PWs)   bands (ev):

   -58.0959 -32.2181 -32.0264 -32.0224 -11.2117  -9.9442  -2.7411   0.1797
     0.2506   0.9038   1.2986   1.4617   2.7926   5.5348   5.6068   5.7223
     5.7636   7.9386   9.2916   9.6854  11.8702  12.4506  13.5856  13.7011
    15.4551  15.5882  15.6474  17.1421  18.7686  18.8169

     occupation numbers 
     1.0000   1.0000   1.0000   1.0000   1.0000   1.0000   1.0000   1.0000
     1.0000   1.0000   1.0000   1.0000   1.0000   0.0000   0.0000   0.0000
     0.0000   0.0000   0.0000   0.0000   0.0000   0.0000   0.0000   0.0000
     0.0000   0.0000   0.0000   0.0000   0.0000   0.0000

          k = 0.0248 0.0143 0.0000 (  4005 PWs)   bands (ev):

   -58.0962 -32.2187 -32.0236 -32.0217 -11.2232  -9.9490  -2.7545   0.2065
     0.2385   0.9792   1.3178   1.4033   2.7978   5.5536   5.5862   5.7575
     5.7768   7.9154   9.2391   9.6713  11.8137  12.4451  13.6119  13.6645
    15.5523  15.5931  15.6416  17.1408  18.8511  18.8846

     occupation numbers 
     1.0000   1.0000   1.0000   1.0000   1.0000   1.0000   1.0000   1.0000
     1.0000   1.0000   1.0000   1.0000   1.0000   0.0000   0.0000   0.0000
     0.0000   0.0000   0.0000   0.0000   0.0000   0.0000   0.0000   0.0000
     0.0000   0.0000   0.0000   0.0000   0.0000   0.0000

          k = 0.0124 0.0072 0.0000 (  4001 PWs)   bands (ev):

   -58.0964 -32.2190 -32.0219 -32.0213 -11.2301  -9.9519  -2.7626   0.2227
     0.2312   1.0386   1.3294   1.3540   2.8008   5.5655   5.5737   5.7793
     5.7849   7.9010   9.2073   9.6628  11.7792  12.4416  13.6284  13.6425
    15.5954  15.6143  15.6382  17.1394  18.9077  18.9327

     occupation numbers 
     1.0000   1.0000   1.0000   1.0000   1.0000   1.0000   1.0000   1.0000
     1.0000   1.0000   1.0000   1.0000   1.0000   0.0000   0.0000   0.0000
     0.0000   0.0000   0.0000   0.0000   0.0000   0.0000   0.0000   0.0000
     0.0000   0.0000   0.0000   0.0000   0.0000   0.0000

          k = 0.0000 0.0000 0.0000 (  4009 PWs)   bands (ev):

   -58.0964 -32.2191 -32.0214 -32.0212 -11.2324  -9.9529  -2.7653   0.2279
     0.2291   1.0634   1.3322   1.3336   2.8018   5.5694   5.5696   5.7865
     5.7878   7.8961   9.1966   9.6600  11.7676  12.4403  13.6336  13.6355
    15.5961  15.6350  15.6377  17.1389  18.9287  18.9292

     occupation numbers 
     1.0000   1.0000   1.0000   1.0000   1.0000   1.0000   1.0000   1.0000
     1.0000   1.0000   1.0000   1.0000   1.0000   0.0000   0.0000   0.0000
     0.0000   0.0000   0.0000   0.0000   0.0000   0.0000   0.0000   0.0000
     0.0000   0.0000   0.0000   0.0000   0.0000   0.0000

     highest occupied, lowest unoccupied level (ev):     2.8091    4.4784

     Writing output data file ./MoS2.save/
 
     init_run     :      0.61s CPU      0.69s WALL (       1 calls)
     electrons    :     56.53s CPU     58.06s WALL (       1 calls)

     Called by init_run:
     wfcinit      :      0.00s CPU      0.00s WALL (       1 calls)
     wfcinit:atom :      0.02s CPU      0.02s WALL (     101 calls)
     wfcinit:wfcr :      1.24s CPU      1.28s WALL (     101 calls)
     potinit      :      0.09s CPU      0.11s WALL (       1 calls)
     hinit0       :      0.38s CPU      0.41s WALL (       1 calls)

     Called by electrons:
     c_bands      :     56.53s CPU     58.05s WALL (       1 calls)
     v_of_rho     :      0.02s CPU      0.02s WALL (       1 calls)
     v_h          :      0.00s CPU      0.00s WALL (       1 calls)
     v_xc         :      0.02s CPU      0.02s WALL (       1 calls)
     newd         :      0.04s CPU      0.06s WALL (       1 calls)
     PAW_pot      :      0.06s CPU      0.07s WALL (       1 calls)

     Called by c_bands:
     init_us_2    :      0.03s CPU      0.03s WALL (     101 calls)
     cegterg      :     55.10s CPU     56.57s WALL (     305 calls)

     Called by sum_band:

     Called by *egterg:
     cdiaghg      :     17.48s CPU     17.86s WALL (    5419 calls)
     cegterg:over :      3.90s CPU      4.00s WALL (    5318 calls)
     cegterg:upda :      1.54s CPU      1.55s WALL (    5318 calls)
     cegterg:last :      3.58s CPU      3.66s WALL (    2866 calls)
     cdiaghg:chol :      0.90s CPU      0.92s WALL (    5419 calls)
     cdiaghg:inve :      0.74s CPU      0.76s WALL (    5419 calls)
     cdiaghg:para :      1.35s CPU      1.41s WALL (   10838 calls)
     h_psi        :     28.41s CPU     29.32s WALL (    5724 calls)
     s_psi        :      0.52s CPU      0.54s WALL (    5724 calls)
     g_psi        :      0.29s CPU      0.29s WALL (    5318 calls)

     Called by h_psi:
     h_psi:calbec :      0.89s CPU      0.92s WALL (    5724 calls)
     vloc_psi     :     26.85s CPU     27.71s WALL (    5724 calls)
     add_vuspsi   :      0.55s CPU      0.56s WALL (    5724 calls)

     General routines
     calbec       :      0.87s CPU      0.91s WALL (    5724 calls)
     fft          :      0.08s CPU      0.10s WALL (      13 calls)
     ffts         :      0.00s CPU      0.00s WALL (       1 calls)
     fftw         :     24.82s CPU     25.62s WALL (  181414 calls)
     interpolate  :      0.00s CPU      0.00s WALL (       1 calls)
 
     Parallel routines
     fft_scatt_xy :      2.78s CPU      2.86s WALL (  181428 calls)
     fft_scatt_yz :      6.84s CPU      7.05s WALL (  181428 calls)

     PAW routines
     PAW_pot      :      0.06s CPU      0.07s WALL (       1 calls)
 
     PWSCF        :     57.80s CPU     59.65s WALL

 
   This run was terminated on:  14:32:50  15Nov2021            

=------------------------------------------------------------------------------=
   JOB DONE.
=------------------------------------------------------------------------------=
