
     Program BANDS v.6.7MaX starts on 15Nov2021 at 14:32:51 

     This program is part of the open-source Quantum ESPRESSO suite
     for quantum simulation of materials; please cite
         "P. Giannozzi et al., J. Phys.:Condens. Matter 21 395502 (2009);
         "P. Giannozzi et al., J. Phys.:Condens. Matter 29 465901 (2017);
          URL http://www.quantum-espresso.org", 
     in publications or presentations arising from this work. More details at
     http://www.quantum-espresso.org/quote

     Parallel version (MPI), running on    10 processors

     MPI processes distributed on     1 nodes
     R & G space division:  proc/nbgrp/npool/nimage =      10

     Reading xml data from directory:

     ./MoS2.save/
     Message from routine qexsd_readschema :
     input info not found or not readable in xml file
     file Mo.pbe-spn-kjpaw_psl.0.2.UPF: wavefunction(s)  4D renormalized
     file S.pbe-n-kjpaw_psl.0.1.UPF: wavefunction(s)  3P renormalized

     IMPORTANT: XC functional enforced from input :
     Exchange-correlation= PBE
                           (   1   4   3   4   0   0   0)
     Any further DFT definition will be discarded
     Please, verify this is what you really want

 
     Parallelization info
     --------------------
     sticks:   dense  smooth     PW     G-vecs:    dense   smooth      PW
     Min         126      49     15                12692     3201     533
     Max         127      50     16                12705     3220     546
     Sum        1261     499    151               126991    32155    5351
 

     Check: negative core charge=   -0.000001

     negative rho (up, down):  7.717E-08 0.000E+00
     Reading collected, re-writing distributed wavefunctions
     high-symmetry point:  0.0000 0.0000 0.0000   x coordinate   0.0000
     high-symmetry point:  0.6613 0.0000 0.0000   x coordinate   0.6613
     high-symmetry point:  0.4960 0.2864 0.0000   x coordinate   0.9920
     high-symmetry point:  0.0000 0.0000 0.0000   x coordinate   1.5648

     Plottable bands (eV) written to file MoS2.bands.gnu
     Bands written to file MoS2.bands

 **************************************************************************

                    xk=(   0.00000,   0.00000,   0.00000  )

     point group C_2v (mm2) 
     there are  4 classes
     the character table:

       E     C2    s_v   s_v' 
A_1    1.00  1.00  1.00  1.00
A_2    1.00  1.00 -1.00 -1.00
B_1    1.00 -1.00  1.00 -1.00
B_2    1.00 -1.00 -1.00  1.00

     the symmetry operations in each class and the name of the first element:

     E        1
                                                                 
     C2       2
                                                                 
     s_v      3
                                                                 
     s_v'     4
                                                                 

     Band symmetry, C_2v (mm2)  point group:

     e(  1 -  1) =    -58.09641  eV     1   --> A_1  D_1  S_1  
     e(  2 -  2) =    -32.21915  eV     1   --> B_2  D_4  S_4  
     e(  3 -  3) =    -32.02140  eV     1   --> B_1  D_3  S_3  
     e(  4 -  4) =    -32.02119  eV     1   --> A_1  D_1  S_1  
     e(  5 -  5) =    -11.23239  eV     1   --> A_1  D_1  S_1  
     e(  6 -  6) =     -9.95289  eV     1   --> B_2  D_4  S_4  
     e(  7 -  7) =     -2.76534  eV     1   --> A_1  D_1  S_1  
     e(  8 -  8) =      0.22792  eV     1   --> B_1  D_3  S_3  
     e(  9 -  9) =      0.22906  eV     1   --> A_1  D_1  S_1  
     e( 10 - 10) =      1.06337  eV     1   --> B_2  D_4  S_4  
     e( 11 - 11) =      1.33218  eV     1   --> A_2  D_2  S_2  
     e( 12 - 12) =      1.33363  eV     1   --> B_2  D_4  S_4  
     e( 13 - 13) =      2.80176  eV     1   --> A_1  D_1  S_1  
     e( 14 - 14) =      5.56945  eV     1   --> B_2  D_4  S_4  
     e( 15 - 15) =      5.56957  eV     1   --> A_2  D_2  S_2  
     e( 16 - 16) =      5.78646  eV     1   --> B_1  D_3  S_3  
     e( 17 - 17) =      5.78783  eV     1   --> A_1  D_1  S_1  
     e( 18 - 18) =      7.89609  eV     1   --> A_1  D_1  S_1  
     e( 19 - 19) =      9.19663  eV     1   --> A_1  D_1  S_1  
     e( 20 - 20) =      9.65999  eV     1   --> B_2  D_4  S_4  
     e( 21 - 21) =     11.76759  eV     1   --> B_2  D_4  S_4  
     e( 22 - 22) =     12.44035  eV     1   --> A_1  D_1  S_1  
     e( 23 - 23) =     13.63362  eV     1   --> B_1  D_3  S_3  
     e( 24 - 24) =     13.63550  eV     1   --> A_1  D_1  S_1  
     e( 25 - 25) =     15.59613  eV     1   --> A_1  D_1  S_1  
     e( 26 - 26) =     15.63495  eV     1   --> A_2  D_2  S_2  
     e( 27 - 27) =     15.63770  eV     1   --> B_2  D_4  S_4  
     e( 28 - 28) =     17.13890  eV     1   --> B_2  D_4  S_4  
     e( 29 - 29) =     18.92871  eV     1   --> A_2  D_2  S_2  
     e( 30 - 30) =     18.92919  eV     1   --> B_2  D_4  S_4  

 **************************************************************************

 **************************************************************************

                    xk=(   0.01653,   0.00000,   0.00000  )

     point group C_s (m)    
     there are  2 classes
     the character table:

       E     s    
A'     1.00  1.00
A''    1.00 -1.00

     the symmetry operations in each class and the name of the first element:

     E        1
                                                                 
     s        2
                                                                 

     Band symmetry, C_s (m)     point group:

     e(  1 -  1) =    -58.09633  eV     1   --> A'             
     e(  2 -  2) =    -32.21900  eV     1   --> A''            
     e(  3 -  3) =    -32.02215  eV     1   --> A'             
     e(  4 -  4) =    -32.02136  eV     1   --> A'             
     e(  5 -  5) =    -11.22932  eV     1   --> A'             
     e(  6 -  6) =     -9.95160  eV     1   --> A''            
     e(  7 -  7) =     -2.76173  eV     1   --> A'             
     e(  8 -  8) =      0.22065  eV     1   --> A'             
     e(  9 -  9) =      0.23231  eV     1   --> A'             
     e( 10 - 10) =      1.03103  eV     1   --> A''            
     e( 11 - 11) =      1.32842  eV     1   --> A''            
     e( 12 - 12) =      1.36010  eV     1   --> A''            
     e( 13 - 13) =      2.80044  eV     1   --> A'             
     e( 14 - 14) =      5.56417  eV     1   --> A''            
     e( 15 - 15) =      5.57506  eV     1   --> A''            
     e( 16 - 16) =      5.77657  eV     1   --> A'             
     e( 17 - 17) =      5.78425  eV     1   --> A'             
     e( 18 - 18) =      7.90259  eV     1   --> A'             
     e( 19 - 19) =      9.21084  eV     1   --> A'             
     e( 20 - 20) =      9.66378  eV     1   --> A''            
     e( 21 - 21) =     11.78305  eV     1   --> A''            
     e( 22 - 22) =     12.44197  eV     1   --> A'             
     e( 23 - 23) =     13.62614  eV     1   --> A'             
     e( 24 - 24) =     13.64533  eV     1   --> A'             
     e( 25 - 25) =     15.59519  eV     1   --> A'             
     e( 26 - 26) =     15.60662  eV     1   --> A''            
     e( 27 - 27) =     15.63918  eV     1   --> A''            
     e( 28 - 28) =     17.13961  eV     1   --> A''            
     e( 29 - 29) =     18.90107  eV     1   --> A''            
     e( 30 - 30) =     18.93386  eV     1   -->   ?

 **************************************************************************

 **************************************************************************

                    xk=(   0.03307,   0.00000,   0.00000  )

     Band symmetry, C_s (m)     point group:

     e(  1 -  1) =    -58.09611  eV     1   --> A'             
     e(  2 -  2) =    -32.21856  eV     1   --> A''            
     e(  3 -  3) =    -32.02442  eV     1   --> A'             
     e(  4 -  4) =    -32.02188  eV     1   --> A'             
     e(  5 -  5) =    -11.22014  eV     1   --> A'             
     e(  6 -  6) =     -9.94775  eV     1   --> A''            
     e(  7 -  7) =     -2.75095  eV     1   --> A'             
     e(  8 -  8) =      0.19903  eV     1   --> A'             
     e(  9 -  9) =      0.24202  eV     1   --> A'             
     e( 10 - 10) =      0.95704  eV     1   --> A''            
     e( 11 - 11) =      1.31273  eV     1   --> A''            
     e( 12 - 12) =      1.42087  eV     1   --> A''            
     e( 13 - 13) =      2.79639  eV     1   --> A'             
     e( 14 - 14) =      5.54843  eV     1   --> A''            
     e( 15 - 15) =      5.59180  eV     1   --> A''            
     e( 16 - 16) =      5.74765  eV     1   --> A'             
     e( 17 - 17) =      5.77354  eV     1   --> A'             
     e( 18 - 18) =      7.92165  eV     1   --> A'             
     e( 19 - 19) =      9.25317  eV     1   --> A'             
     e( 20 - 20) =      9.67508  eV     1   --> A''            
     e( 21 - 21) =     11.82889  eV     1   --> A''            
     e( 22 - 22) =     12.44664  eV     1   --> A'             
     e( 23 - 23) =     13.60440  eV     1   --> A'             
     e( 24 - 24) =     13.67464  eV     1   --> A'             
     e( 25 - 25) =     15.52529  eV     1   --> A''            
     e( 26 - 26) =     15.59187  eV     1   --> A'             
     e( 27 - 27) =     15.64350  eV     1   --> A''            
     e( 28 - 28) =     17.14129  eV     1   --> A''            
     e( 29 - 29) =     18.83001  eV     1   --> A''            
     e( 30 - 30) =     18.86376  eV     1   --> A'             

 **************************************************************************

 **************************************************************************

                    xk=(   0.04960,   0.00000,   0.00000  )

     Band symmetry, C_s (m)     point group:

     e(  1 -  1) =    -58.09574  eV     1   --> A'             
     e(  2 -  2) =    -32.21781  eV     1   --> A''            
     e(  3 -  3) =    -32.02818  eV     1   --> A'             
     e(  4 -  4) =    -32.02273  eV     1   --> A'             
     e(  5 -  5) =    -11.20488  eV     1   --> A'             
     e(  6 -  6) =     -9.94134  eV     1   --> A''            
     e(  7 -  7) =     -2.73312  eV     1   --> A'             
     e(  8 -  8) =      0.16360  eV     1   --> A'             
     e(  9 -  9) =      0.25812  eV     1   --> A'             
     e( 10 - 10) =      0.86613  eV     1   --> A''            
     e( 11 - 11) =      1.28643  eV     1   --> A''            
     e( 12 - 12) =      1.48993  eV     1   --> A''            
     e( 13 - 13) =      2.78934  eV     1   --> A'             
     e( 14 - 14) =      5.52364  eV     1   --> A''            
     e( 15 - 15) =      5.61945  eV     1   --> A''            
     e( 16 - 16) =      5.70184  eV     1   --> A'             
     e( 17 - 17) =      5.75586  eV     1   --> A'             
     e( 18 - 18) =      7.95208  eV     1   --> A'             
     e( 19 - 19) =      9.32279  eV     1   --> A'             
     e( 20 - 20) =      9.69379  eV     1   --> A''            
     e( 21 - 21) =     11.90353  eV     1   --> A''            
     e( 22 - 22) =     12.45375  eV     1   --> A'             
     e( 23 - 23) =     13.57037  eV     1   --> A'             
     e( 24 - 24) =     13.72294  eV     1   --> A'             
     e( 25 - 25) =     15.40027  eV     1   --> A''            
     e( 26 - 26) =     15.58481  eV     1   --> A'             
     e( 27 - 27) =     15.65034  eV     1   --> A''            
     e( 28 - 28) =     17.14265  eV     1   --> A''            
     e( 29 - 29) =     18.73115  eV     1   --> A''            
     e( 30 - 30) =     18.78493  eV     1   --> A'             

 **************************************************************************

 **************************************************************************

                    xk=(   0.06613,   0.00000,   0.00000  )

     Band symmetry, C_s (m)     point group:

     e(  1 -  1) =    -58.09524  eV     1   --> A'             
     e(  2 -  2) =    -32.21679  eV     1   --> A''            
     e(  3 -  3) =    -32.03336  eV     1   --> A'             
     e(  4 -  4) =    -32.02394  eV     1   --> A'             
     e(  5 -  5) =    -11.18362  eV     1   --> A'             
     e(  6 -  6) =     -9.93242  eV     1   --> A''            
     e(  7 -  7) =     -2.70844  eV     1   --> A'             
     e(  8 -  8) =      0.11524  eV     1   --> A'             
     e(  9 -  9) =      0.28047  eV     1   --> A'             
     e( 10 - 10) =      0.76781  eV     1   --> A''            
     e( 11 - 11) =      1.24930  eV     1   --> A''            
     e( 12 - 12) =      1.55803  eV     1   --> A''            
     e( 13 - 13) =      2.77886  eV     1   --> A'             
     e( 14 - 14) =      5.49183  eV     1   --> A''            
     e( 15 - 15) =      5.64221  eV     1   --> A'             
     e( 16 - 16) =      5.65763  eV     1   --> A''            
     e( 17 - 17) =      5.73145  eV     1   --> A'             
     e( 18 - 18) =      7.99235  eV     1   --> A'             
     e( 19 - 19) =      9.41831  eV     1   --> A'             
     e( 20 - 20) =      9.71974  eV     1   --> A''            
     e( 21 - 21) =     12.00446  eV     1   --> A''            
     e( 22 - 22) =     12.46238  eV     1   --> A'             
     e( 23 - 23) =     13.52696  eV     1   --> A'             
     e( 24 - 24) =     13.78929  eV     1   --> A'             
     e( 25 - 25) =     15.24310  eV     1   --> A''            
     e( 26 - 26) =     15.57233  eV     1   --> A'             
     e( 27 - 27) =     15.65907  eV     1   --> A''            
     e( 28 - 28) =     17.14169  eV     1   --> A''            
     e( 29 - 29) =     18.61709  eV     1   --> A''            
     e( 30 - 30) =     18.70147  eV     1   --> A'             

 **************************************************************************

 **************************************************************************

                    xk=(   0.08267,   0.00000,   0.00000  )

     Band symmetry, C_s (m)     point group:

     e(  1 -  1) =    -58.09459  eV     1   --> A'             
     e(  2 -  2) =    -32.21549  eV     1   --> A''            
     e(  3 -  3) =    -32.03994  eV     1   --> A'             
     e(  4 -  4) =    -32.02549  eV     1   --> A'             
     e(  5 -  5) =    -11.15646  eV     1   --> A'             
     e(  6 -  6) =     -9.92102  eV     1   --> A''            
     e(  7 -  7) =     -2.67719  eV     1   --> A'             
     e(  8 -  8) =      0.05511  eV     1   --> A'             
     e(  9 -  9) =      0.30887  eV     1   --> A'             
     e( 10 - 10) =      0.66594  eV     1   --> A''            
     e( 11 - 11) =      1.20115  eV     1   --> A''            
     e( 12 - 12) =      1.62168  eV     1   --> A''            
     e( 13 - 13) =      2.76437  eV     1   --> A'             
     e( 14 - 14) =      5.45541  eV     1   --> A''            
     e( 15 - 15) =      5.57230  eV     1   --> A'             
     e( 16 - 16) =      5.70067  eV     1   --> A'             
     e( 17 - 17) =      5.70580  eV     1   --> A''            
     e( 18 - 18) =      8.04098  eV     1   --> A'             
     e( 19 - 19) =      9.53782  eV     1   --> A'             
     e( 20 - 20) =      9.75271  eV     1   --> A''            
     e( 21 - 21) =     12.12834  eV     1   --> A''            
     e( 22 - 22) =     12.47141  eV     1   --> A'             
     e( 23 - 23) =     13.47755  eV     1   --> A'             
     e( 24 - 24) =     13.87213  eV     1   --> A'             
     e( 25 - 25) =     15.06475  eV     1   --> A''            
     e( 26 - 26) =     15.55314  eV     1   --> A'             
     e( 27 - 27) =     15.66866  eV     1   --> A''            
     e( 28 - 28) =     17.13594  eV     1   --> A''            
     e( 29 - 29) =     18.50041  eV     1   --> A''            
     e( 30 - 30) =     18.60454  eV     1   --> A'             

 **************************************************************************

 **************************************************************************

                    xk=(   0.09920,   0.00000,   0.00000  )

     Band symmetry, C_s (m)     point group:

     e(  1 -  1) =    -58.09381  eV     1   --> A'             
     e(  2 -  2) =    -32.21392  eV     1   --> A''            
     e(  3 -  3) =    -32.04784  eV     1   --> A'             
     e(  4 -  4) =    -32.02739  eV     1   --> A'             
     e(  5 -  5) =    -11.12352  eV     1   --> A'             
     e(  6 -  6) =     -9.90719  eV     1   --> A''            
     e(  7 -  7) =     -2.63977  eV     1   --> A'             
     e(  8 -  8) =     -0.01540  eV     1   --> A'             
     e(  9 -  9) =      0.34304  eV     1   --> A'             
     e( 10 - 10) =      0.56256  eV     1   --> A''            
     e( 11 - 11) =      1.14179  eV     1   --> A''            
     e( 12 - 12) =      1.67934  eV     1   --> A''            
     e( 13 - 13) =      2.74518  eV     1   --> A'             
     e( 14 - 14) =      5.41703  eV     1   --> A''            
     e( 15 - 15) =      5.49568  eV     1   --> A'             
     e( 16 - 16) =      5.66406  eV     1   --> A'             
     e( 17 - 17) =      5.76327  eV     1   --> A''            
     e( 18 - 18) =      8.09675  eV     1   --> A'             
     e( 19 - 19) =      9.67899  eV     1   --> A'             
     e( 20 - 20) =      9.79245  eV     1   --> A''            
     e( 21 - 21) =     12.27112  eV     1   --> A''            
     e( 22 - 22) =     12.47956  eV     1   --> A'             
     e( 23 - 23) =     13.42562  eV     1   --> A'             
     e( 24 - 24) =     13.96910  eV     1   --> A'             
     e( 25 - 25) =     14.87457  eV     1   --> A''            
     e( 26 - 26) =     15.52711  eV     1   --> A'             
     e( 27 - 27) =     15.67758  eV     1   --> A''            
     e( 28 - 28) =     17.12293  eV     1   --> A''            
     e( 29 - 29) =     18.39331  eV     1   --> A''            
     e( 30 - 30) =     18.48028  eV     1   --> A'             

 **************************************************************************

 **************************************************************************

                    xk=(   0.11573,   0.00000,   0.00000  )

     Band symmetry, C_s (m)     point group:

     e(  1 -  1) =    -58.09290  eV     1   --> A'             
     e(  2 -  2) =    -32.21209  eV     1   --> A''            
     e(  3 -  3) =    -32.05696  eV     1   --> A'             
     e(  4 -  4) =    -32.02965  eV     1   --> A'             
     e(  5 -  5) =    -11.08495  eV     1   --> A'             
     e(  6 -  6) =     -9.89100  eV     1   --> A''            
     e(  7 -  7) =     -2.59666  eV     1   --> A'             
     e(  8 -  8) =     -0.09474  eV     1   --> A'             
     e(  9 -  9) =      0.38264  eV     1   --> A'             
     e( 10 - 10) =      0.45901  eV     1   --> A''            
     e( 11 - 11) =      1.07119  eV     1   --> A''            
     e( 12 - 12) =      1.73022  eV     1   --> A''            
     e( 13 - 13) =      2.72054  eV     1   --> A'             
     e( 14 - 14) =      5.37926  eV     1   --> A''            
     e( 15 - 15) =      5.41576  eV     1   --> A'             
     e( 16 - 16) =      5.62233  eV     1   --> A'             
     e( 17 - 17) =      5.82922  eV     1   --> A''            
     e( 18 - 18) =      8.15885  eV     1   --> A'             
     e( 19 - 19) =      9.83871  eV     1   --> A''            
     e( 20 - 20) =      9.83924  eV     1   --> A'             
     e( 21 - 21) =     12.42800  eV     1   --> A''            
     e( 22 - 22) =     12.48557  eV     1   --> A'             
     e( 23 - 23) =     13.37441  eV     1   --> A'             
     e( 24 - 24) =     14.07662  eV     1   --> A'             
     e( 25 - 25) =     14.68022  eV     1   --> A''            
     e( 26 - 26) =     15.49602  eV     1   --> A'             
     e( 27 - 27) =     15.68358  eV     1   --> A''            
     e( 28 - 28) =     17.10136  eV     1   --> A''            
     e( 29 - 29) =     18.30613  eV     1   --> A''            
     e( 30 - 30) =     18.32349  eV     1   --> A'             

 **************************************************************************

 **************************************************************************

                    xk=(   0.13227,   0.00000,   0.00000  )

     Band symmetry, C_s (m)     point group:

     e(  1 -  1) =    -58.09187  eV     1   --> A'             
     e(  2 -  2) =    -32.21004  eV     1   --> A''            
     e(  3 -  3) =    -32.06722  eV     1   --> A'             
     e(  4 -  4) =    -32.03226  eV     1   --> A'             
     e(  5 -  5) =    -11.04094  eV     1   --> A'             
     e(  6 -  6) =     -9.87252  eV     1   --> A''            
     e(  7 -  7) =     -2.54845  eV     1   --> A'             
     e(  8 -  8) =     -0.18119  eV     1   --> A'             
     e(  9 -  9) =      0.35629  eV     1   --> A''            
     e( 10 - 10) =      0.42718  eV     1   --> A'             
     e( 11 - 11) =      0.98947  eV     1   --> A''            
     e( 12 - 12) =      1.77392  eV     1   --> A''            
     e( 13 - 13) =      2.68971  eV     1   --> A'             
     e( 14 - 14) =      5.33550  eV     1   --> A'             
     e( 15 - 15) =      5.34443  eV     1   --> A''            
     e( 16 - 16) =      5.57642  eV     1   --> A'             
     e( 17 - 17) =      5.90269  eV     1   --> A''            
     e( 18 - 18) =      8.22677  eV     1   --> A'             
     e( 19 - 19) =      9.89120  eV     1   --> A''            
     e( 20 - 20) =     10.01575  eV     1   --> A'             
     e( 21 - 21) =     12.48825  eV     1   --> A'             
     e( 22 - 22) =     12.59331  eV     1   --> A''            
     e( 23 - 23) =     13.32665  eV     1   --> A'             
     e( 24 - 24) =     14.18932  eV     1   --> A'             
     e( 25 - 25) =     14.48835  eV     1   --> A''            
     e( 26 - 26) =     15.46434  eV     1   --> A'             
     e( 27 - 27) =     15.68359  eV     1   --> A''            
     e( 28 - 28) =     17.07294  eV     1   --> A''            
     e( 29 - 29) =     18.13796  eV     1   --> A'             
     e( 30 - 30) =     18.24573  eV     1   --> A''            

 **************************************************************************

 **************************************************************************

                    xk=(   0.14880,   0.00000,   0.00000  )

     Band symmetry, C_s (m)     point group:

     e(  1 -  1) =    -58.09073  eV     1   --> A'             
     e(  2 -  2) =    -32.20776  eV     1   --> A''            
     e(  3 -  3) =    -32.07851  eV     1   --> A'             
     e(  4 -  4) =    -32.03522  eV     1   --> A'             
     e(  5 -  5) =    -10.99170  eV     1   --> A'             
     e(  6 -  6) =     -9.85184  eV     1   --> A''            
     e(  7 -  7) =     -2.49589  eV     1   --> A'             
     e(  8 -  8) =     -0.27296  eV     1   --> A'             
     e(  9 -  9) =      0.25521  eV     1   --> A''            
     e( 10 - 10) =      0.47607  eV     1   --> A'             
     e( 11 - 11) =      0.89699  eV     1   --> A''            
     e( 12 - 12) =      1.81028  eV     1   --> A''            
     e( 13 - 13) =      2.65209  eV     1   --> A'             
     e( 14 - 14) =      5.25736  eV     1   --> A'             
     e( 15 - 15) =      5.31449  eV     1   --> A''            
     e( 16 - 16) =      5.52753  eV     1   --> A'             
     e( 17 - 17) =      5.98262  eV     1   --> A''            
     e( 18 - 18) =      8.30027  eV     1   --> A'             
     e( 19 - 19) =      9.94962  eV     1   --> A''            
     e( 20 - 20) =     10.20561  eV     1   --> A'             
     e( 21 - 21) =     12.48662  eV     1   --> A'             
     e( 22 - 22) =     12.75988  eV     1   --> A''            
     e( 23 - 23) =     13.28432  eV     1   --> A'             
     e( 24 - 24) =     14.29911  eV     1   --> A'             
     e( 25 - 25) =     14.30570  eV     1   --> A''            
     e( 26 - 26) =     15.44017  eV     1   --> A'             
     e( 27 - 27) =     15.67385  eV     1   --> A''            
     e( 28 - 28) =     17.04361  eV     1   --> A''            
     e( 29 - 29) =     17.92821  eV     1   --> A'             
     e( 30 - 30) =     18.21418  eV     1   --> A''            

 **************************************************************************

 **************************************************************************

                    xk=(   0.16533,   0.00000,   0.00000  )

     Band symmetry, C_s (m)     point group:

     e(  1 -  1) =    -58.08949  eV     1   --> A'             
     e(  2 -  2) =    -32.20525  eV     1   --> A''            
     e(  3 -  3) =    -32.09067  eV     1   --> A'             
     e(  4 -  4) =    -32.03853  eV     1   --> A'             
     e(  5 -  5) =    -10.93746  eV     1   --> A'             
     e(  6 -  6) =     -9.82907  eV     1   --> A''            
     e(  7 -  7) =     -2.43987  eV     1   --> A'             
     e(  8 -  8) =     -0.36815  eV     1   --> A'             
     e(  9 -  9) =      0.15638  eV     1   --> A''            
     e( 10 - 10) =      0.52856  eV     1   --> A'             
     e( 11 - 11) =      0.79440  eV     1   --> A''            
     e( 12 - 12) =      1.83932  eV     1   --> A''            
     e( 13 - 13) =      2.60732  eV     1   --> A'             
     e( 14 - 14) =      5.18314  eV     1   --> A'             
     e( 15 - 15) =      5.29096  eV     1   --> A''            
     e( 16 - 16) =      5.47718  eV     1   --> A'             
     e( 17 - 17) =      6.06784  eV     1   --> A''            
     e( 18 - 18) =      8.37924  eV     1   --> A'             
     e( 19 - 19) =     10.01363  eV     1   --> A''            
     e( 20 - 20) =     10.40581  eV     1   --> A'             
     e( 21 - 21) =     12.48008  eV     1   --> A'             
     e( 22 - 22) =     12.91773  eV     1   --> A''            
     e( 23 - 23) =     13.24850  eV     1   --> A'             
     e( 24 - 24) =     14.14083  eV     1   --> A''            
     e( 25 - 25) =     14.39456  eV     1   --> A'             
     e( 26 - 26) =     15.43568  eV     1   --> A'             
     e( 27 - 27) =     15.65061  eV     1   --> A''            
     e( 28 - 28) =     17.02268  eV     1   --> A''            
     e( 29 - 29) =     17.69824  eV     1   --> A'             
     e( 30 - 30) =     18.20909  eV     1   --> A''            

 **************************************************************************

 **************************************************************************

                    xk=(   0.18187,   0.00000,   0.00000  )

     Band symmetry, C_s (m)     point group:

     e(  1 -  1) =    -58.08816  eV     1   --> A'             
     e(  2 -  2) =    -32.20256  eV     1   --> A''            
     e(  3 -  3) =    -32.10362  eV     1   --> A'             
     e(  4 -  4) =    -32.04219  eV     1   --> A'             
     e(  5 -  5) =    -10.87849  eV     1   --> A'             
     e(  6 -  6) =     -9.80430  eV     1   --> A''            
     e(  7 -  7) =     -2.38148  eV     1   --> A'             
     e(  8 -  8) =     -0.46478  eV     1   --> A'             
     e(  9 -  9) =      0.06024  eV     1   --> A''            
     e( 10 - 10) =      0.58367  eV     1   --> A'             
     e( 11 - 11) =      0.68266  eV     1   --> A''            
     e( 12 - 12) =      1.86111  eV     1   --> A''            
     e( 13 - 13) =      2.55536  eV     1   --> A'             
     e( 14 - 14) =      5.11393  eV     1   --> A'             
     e( 15 - 15) =      5.27490  eV     1   --> A''            
     e( 16 - 16) =      5.42721  eV     1   --> A'             
     e( 17 - 17) =      6.15712  eV     1   --> A''            
     e( 18 - 18) =      8.46366  eV     1   --> A'             
     e( 19 - 19) =     10.08286  eV     1   --> A''            
     e( 20 - 20) =     10.61314  eV     1   --> A'             
     e( 21 - 21) =     12.46847  eV     1   --> A'             
     e( 22 - 22) =     13.05093  eV     1   --> A''            
     e( 23 - 23) =     13.21937  eV     1   --> A'             
     e( 24 - 24) =     14.00757  eV     1   --> A''            
     e( 25 - 25) =     14.46261  eV     1   --> A'             
     e( 26 - 26) =     15.46505  eV     1   --> A'             
     e( 27 - 27) =     15.61140  eV     1   --> A''            
     e( 28 - 28) =     17.01977  eV     1   --> A''            
     e( 29 - 29) =     17.45215  eV     1   --> A'             
     e( 30 - 30) =     18.22530  eV     1   --> A''            

 **************************************************************************

 **************************************************************************

                    xk=(   0.19840,   0.00000,   0.00000  )

     Band symmetry, C_s (m)     point group:

     e(  1 -  1) =    -58.08674  eV     1   --> A'             
     e(  2 -  2) =    -32.19971  eV     1   --> A''            
     e(  3 -  3) =    -32.11719  eV     1   --> A'             
     e(  4 -  4) =    -32.04621  eV     1   --> A'             
     e(  5 -  5) =    -10.81508  eV     1   --> A'             
     e(  6 -  6) =     -9.77767  eV     1   --> A''            
     e(  7 -  7) =     -2.32206  eV     1   --> A'             
     e(  8 -  8) =     -0.56074  eV     1   --> A'             
     e(  9 -  9) =     -0.03296  eV     1   --> A''            
     e( 10 - 10) =      0.56306  eV     1   --> A''            
     e( 11 - 11) =      0.64017  eV     1   --> A'             
     e( 12 - 12) =      1.87581  eV     1   --> A''            
     e( 13 - 13) =      2.49670  eV     1   --> A'             
     e( 14 - 14) =      5.05010  eV     1   --> A'             
     e( 15 - 15) =      5.26691  eV     1   --> A''            
     e( 16 - 16) =      5.37976  eV     1   --> A'             
     e( 17 - 17) =      6.24918  eV     1   --> A''            
     e( 18 - 18) =      8.55354  eV     1   --> A'             
     e( 19 - 19) =     10.15689  eV     1   --> A''            
     e( 20 - 20) =     10.82409  eV     1   --> A'             
     e( 21 - 21) =     12.45216  eV     1   --> A'             
     e( 22 - 22) =     13.13432  eV     1   --> A''            
     e( 23 - 23) =     13.19631  eV     1   --> A'             
     e( 24 - 24) =     13.92867  eV     1   --> A''            
     e( 25 - 25) =     14.49515  eV     1   --> A'             
     e( 26 - 26) =     15.53711  eV     1   --> A'             
     e( 27 - 27) =     15.55650  eV     1   --> A''            
     e( 28 - 28) =     17.04153  eV     1   --> A''            
     e( 29 - 29) =     17.19485  eV     1   --> A'             
     e( 30 - 30) =     18.25650  eV     1   --> A''            

 **************************************************************************

 **************************************************************************

                    xk=(   0.21493,   0.00000,   0.00000  )

     Band symmetry, C_s (m)     point group:

     e(  1 -  1) =    -58.08526  eV     1   --> A'             
     e(  2 -  2) =    -32.19672  eV     1   --> A''            
     e(  3 -  3) =    -32.13125  eV     1   --> A'             
     e(  4 -  4) =    -32.05057  eV     1   --> A'             
     e(  5 -  5) =    -10.74755  eV     1   --> A'             
     e(  6 -  6) =     -9.74930  eV     1   --> A''            
     e(  7 -  7) =     -2.26326  eV     1   --> A'             
     e(  8 -  8) =     -0.65374  eV     1   --> A'             
     e(  9 -  9) =     -0.12328  eV     1   --> A''            
     e( 10 - 10) =      0.43728  eV     1   --> A''            
     e( 11 - 11) =      0.69649  eV     1   --> A'             
     e( 12 - 12) =      1.88360  eV     1   --> A''            
     e( 13 - 13) =      2.43239  eV     1   --> A'             
     e( 14 - 14) =      4.99145  eV     1   --> A'             
     e( 15 - 15) =      5.26722  eV     1   --> A''            
     e( 16 - 16) =      5.33710  eV     1   --> A'             
     e( 17 - 17) =      6.34271  eV     1   --> A''            
     e( 18 - 18) =      8.64890  eV     1   --> A'             
     e( 19 - 19) =     10.23526  eV     1   --> A''            
     e( 20 - 20) =     11.03447  eV     1   --> A'             
     e( 21 - 21) =     12.43203  eV     1   --> A'             
     e( 22 - 22) =     13.14423  eV     1   --> A''            
     e( 23 - 23) =     13.17839  eV     1   --> A'             
     e( 24 - 24) =     13.92529  eV     1   --> A''            
     e( 25 - 25) =     14.49542  eV     1   --> A'             
     e( 26 - 26) =     15.48926  eV     1   --> A''            
     e( 27 - 27) =     15.64720  eV     1   --> A'             
     e( 28 - 28) =     16.93347  eV     1   --> A'             
     e( 29 - 29) =     17.08998  eV     1   --> A''            
     e( 30 - 30) =     18.29621  eV     1   --> A''            

 **************************************************************************

 **************************************************************************

                    xk=(   0.23147,   0.00000,   0.00000  )

     Band symmetry, C_s (m)     point group:

     e(  1 -  1) =    -58.08371  eV     1   --> A'             
     e(  2 -  2) =    -32.19361  eV     1   --> A''            
     e(  3 -  3) =    -32.14567  eV     1   --> A'             
     e(  4 -  4) =    -32.05531  eV     1   --> A'             
     e(  5 -  5) =    -10.67626  eV     1   --> A'             
     e(  6 -  6) =     -9.71935  eV     1   --> A''            
     e(  7 -  7) =     -2.20710  eV     1   --> A'             
     e(  8 -  8) =     -0.74127  eV     1   --> A'             
     e(  9 -  9) =     -0.21117  eV     1   --> A''            
     e( 10 - 10) =      0.30751  eV     1   --> A''            
     e( 11 - 11) =      0.75069  eV     1   --> A'             
     e( 12 - 12) =      1.88466  eV     1   --> A''            
     e( 13 - 13) =      2.36410  eV     1   --> A'             
     e( 14 - 14) =      4.93749  eV     1   --> A'             
     e( 15 - 15) =      5.27576  eV     1   --> A''            
     e( 16 - 16) =      5.30140  eV     1   --> A'             
     e( 17 - 17) =      6.43640  eV     1   --> A''            
     e( 18 - 18) =      8.74972  eV     1   --> A'             
     e( 19 - 19) =     10.31746  eV     1   --> A''            
     e( 20 - 20) =     11.23880  eV     1   --> A'             
     e( 21 - 21) =     12.40990  eV     1   --> A'             
     e( 22 - 22) =     13.08907  eV     1   --> A''            
     e( 23 - 23) =     13.16485  eV     1   --> A'             
     e( 24 - 24) =     13.98666  eV     1   --> A''            
     e( 25 - 25) =     14.47501  eV     1   --> A'             
     e( 26 - 26) =     15.41535  eV     1   --> A''            
     e( 27 - 27) =     15.77462  eV     1   --> A'             
     e( 28 - 28) =     16.68245  eV     1   --> A'             
     e( 29 - 29) =     17.16270  eV     1   --> A''            
     e( 30 - 30) =     18.27216  eV     1   --> A'             

 **************************************************************************

 **************************************************************************

                    xk=(   0.24800,   0.00000,   0.00000  )

     Band symmetry, C_s (m)     point group:

     e(  1 -  1) =    -58.08212  eV     1   --> A'             
     e(  2 -  2) =    -32.19041  eV     1   --> A''            
     e(  3 -  3) =    -32.16031  eV     1   --> A'             
     e(  4 -  4) =    -32.06037  eV     1   --> A'             
     e(  5 -  5) =    -10.60157  eV     1   --> A'             
     e(  6 -  6) =     -9.68796  eV     1   --> A''            
     e(  7 -  7) =     -2.15602  eV     1   --> A'             
     e(  8 -  8) =     -0.82053  eV     1   --> A'             
     e(  9 -  9) =     -0.29776  eV     1   --> A''            
     e( 10 - 10) =      0.17657  eV     1   --> A''            
     e( 11 - 11) =      0.80028  eV     1   --> A'             
     e( 12 - 12) =      1.87917  eV     1   --> A''            
     e( 13 - 13) =      2.29420  eV     1   --> A'             
     e( 14 - 14) =      4.88792  eV     1   --> A'             
     e( 15 - 15) =      5.27428  eV     1   --> A'             
     e( 16 - 16) =      5.29219  eV     1   --> A''            
     e( 17 - 17) =      6.52897  eV     1   --> A''            
     e( 18 - 18) =      8.85599  eV     1   --> A'             
     e( 19 - 19) =     10.40297  eV     1   --> A''            
     e( 20 - 20) =     11.42885  eV     1   --> A'             
     e( 21 - 21) =     12.38971  eV     1   --> A'             
     e( 22 - 22) =     13.00075  eV     1   --> A''            
     e( 23 - 23) =     13.15569  eV     1   --> A'             
     e( 24 - 24) =     14.07890  eV     1   --> A''            
     e( 25 - 25) =     14.44614  eV     1   --> A'             
     e( 26 - 26) =     15.34124  eV     1   --> A''            
     e( 27 - 27) =     15.86807  eV     1   --> A'             
     e( 28 - 28) =     16.48517  eV     1   --> A'             
     e( 29 - 29) =     17.25377  eV     1   --> A''            
     e( 30 - 30) =     18.25083  eV     1   --> A'             

 **************************************************************************

 **************************************************************************

                    xk=(   0.26453,   0.00000,   0.00000  )

     Band symmetry, C_s (m)     point group:

     e(  1 -  1) =    -58.08049  eV     1   --> A'             
     e(  2 -  2) =    -32.18713  eV     1   --> A''            
     e(  3 -  3) =    -32.17499  eV     1   --> A'             
     e(  4 -  4) =    -32.06580  eV     1   --> A'             
     e(  5 -  5) =    -10.52391  eV     1   --> A'             
     e(  6 -  6) =     -9.65530  eV     1   --> A''            
     e(  7 -  7) =     -2.11282  eV     1   --> A'             
     e(  8 -  8) =     -0.88848  eV     1   --> A'             
     e(  9 -  9) =     -0.38513  eV     1   --> A''            
     e( 10 - 10) =      0.04825  eV     1   --> A''            
     e( 11 - 11) =      0.84229  eV     1   --> A'             
     e( 12 - 12) =      1.86731  eV     1   --> A''            
     e( 13 - 13) =      2.22569  eV     1   --> A'             
     e( 14 - 14) =      4.84302  eV     1   --> A'             
     e( 15 - 15) =      5.25653  eV     1   --> A'             
     e( 16 - 16) =      5.31599  eV     1   --> A''            
     e( 17 - 17) =      6.61918  eV     1   --> A''            
     e( 18 - 18) =      8.96761  eV     1   --> A'             
     e( 19 - 19) =     10.49120  eV     1   --> A''            
     e( 20 - 20) =     11.59100  eV     1   --> A'             
     e( 21 - 21) =     12.38018  eV     1   --> A'             
     e( 22 - 22) =     12.90334  eV     1   --> A''            
     e( 23 - 23) =     13.15202  eV     1   --> A'             
     e( 24 - 24) =     14.17652  eV     1   --> A''            
     e( 25 - 25) =     14.41742  eV     1   --> A'             
     e( 26 - 26) =     15.27319  eV     1   --> A''            
     e( 27 - 27) =     15.81681  eV     1   --> A'             
     e( 28 - 28) =     16.44655  eV     1   --> A'             
     e( 29 - 29) =     17.35420  eV     1   --> A''            
     e( 30 - 30) =     18.23789  eV     1   --> A'             

 **************************************************************************

 **************************************************************************

                    xk=(   0.28107,   0.00000,   0.00000  )

     Band symmetry, C_s (m)     point group:

     e(  1 -  1) =    -58.07884  eV     1   --> A'             
     e(  2 -  2) =    -32.18955  eV     1   --> A'             
     e(  3 -  3) =    -32.18379  eV     1   --> A''            
     e(  4 -  4) =    -32.07154  eV     1   --> A'             
     e(  5 -  5) =    -10.44370  eV     1   --> A'             
     e(  6 -  6) =     -9.62155  eV     1   --> A''            
     e(  7 -  7) =     -2.08044  eV     1   --> A'             
     e(  8 -  8) =     -0.94210  eV     1   --> A'             
     e(  9 -  9) =     -0.47662  eV     1   --> A''            
     e( 10 - 10) =     -0.07246  eV     1   --> A''            
     e( 11 - 11) =      0.87323  eV     1   --> A'             
     e( 12 - 12) =      1.84926  eV     1   --> A''            
     e( 13 - 13) =      2.16210  eV     1   --> A'             
     e( 14 - 14) =      4.80379  eV     1   --> A'             
     e( 15 - 15) =      5.24799  eV     1   --> A'             
     e( 16 - 16) =      5.34650  eV     1   --> A''            
     e( 17 - 17) =      6.70591  eV     1   --> A''            
     e( 18 - 18) =      9.08448  eV     1   --> A'             
     e( 19 - 19) =     10.58159  eV     1   --> A''            
     e( 20 - 20) =     11.70405  eV     1   --> A'             
     e( 21 - 21) =     12.39726  eV     1   --> A'             
     e( 22 - 22) =     12.80929  eV     1   --> A''            
     e( 23 - 23) =     13.15594  eV     1   --> A'             
     e( 24 - 24) =     14.26641  eV     1   --> A''            
     e( 25 - 25) =     14.39325  eV     1   --> A'             
     e( 26 - 26) =     15.21657  eV     1   --> A''            
     e( 27 - 27) =     15.62027  eV     1   --> A'             
     e( 28 - 28) =     16.56358  eV     1   --> A'             
     e( 29 - 29) =     17.45158  eV     1   --> A''            
     e( 30 - 30) =     18.23557  eV     1   --> A'             

 **************************************************************************

 **************************************************************************

                    xk=(   0.29760,   0.00000,   0.00000  )

     Band symmetry, C_s (m)     point group:

     e(  1 -  1) =    -58.07717  eV     1   --> A'             
     e(  2 -  2) =    -32.20387  eV     1   --> A'             
     e(  3 -  3) =    -32.18043  eV     1   --> A''            
     e(  4 -  4) =    -32.07763  eV     1   --> A'             
     e(  5 -  5) =    -10.36142  eV     1   --> A'             
     e(  6 -  6) =     -9.58690  eV     1   --> A''            
     e(  7 -  7) =     -2.06135  eV     1   --> A'             
     e(  8 -  8) =     -0.97893  eV     1   --> A'             
     e(  9 -  9) =     -0.57639  eV     1   --> A''            
     e( 10 - 10) =     -0.17984  eV     1   --> A''            
     e( 11 - 11) =      0.88936  eV     1   --> A'             
     e( 12 - 12) =      1.82519  eV     1   --> A''            
     e( 13 - 13) =      2.10720  eV     1   --> A'             
     e( 14 - 14) =      4.77186  eV     1   --> A'             
     e( 15 - 15) =      5.24761  eV     1   --> A'             
     e( 16 - 16) =      5.38292  eV     1   --> A''            
     e( 17 - 17) =      6.78810  eV     1   --> A''            
     e( 18 - 18) =      9.20639  eV     1   --> A'             
     e( 19 - 19) =     10.67355  eV     1   --> A''            
     e( 20 - 20) =     11.74817  eV     1   --> A'             
     e( 21 - 21) =     12.45524  eV     1   --> A'             
     e( 22 - 22) =     12.72494  eV     1   --> A''            
     e( 23 - 23) =     13.17014  eV     1   --> A'             
     e( 24 - 24) =     14.34268  eV     1   --> A''            
     e( 25 - 25) =     14.37392  eV     1   --> A'             
     e( 26 - 26) =     15.17538  eV     1   --> A''            
     e( 27 - 27) =     15.38190  eV     1   --> A'             
     e( 28 - 28) =     16.73144  eV     1   --> A'             
     e( 29 - 29) =     17.52953  eV     1   --> A''            
     e( 30 - 30) =     18.24595  eV     1   --> A'             

 **************************************************************************

 **************************************************************************

                    xk=(   0.31413,   0.00000,   0.00000  )

     Band symmetry, C_s (m)     point group:

     e(  1 -  1) =    -58.07551  eV     1   --> A'             
     e(  2 -  2) =    -32.21784  eV     1   --> A'             
     e(  3 -  3) =    -32.17708  eV     1   --> A''            
     e(  4 -  4) =    -32.08405  eV     1   --> A'             
     e(  5 -  5) =    -10.27757  eV     1   --> A'             
     e(  6 -  6) =     -9.55154  eV     1   --> A''            
     e(  7 -  7) =     -2.05676  eV     1   --> A'             
     e(  8 -  8) =     -0.99790  eV     1   --> A'             
     e(  9 -  9) =     -0.68755  eV     1   --> A''            
     e( 10 - 10) =     -0.26939  eV     1   --> A''            
     e( 11 - 11) =      0.88734  eV     1   --> A'             
     e( 12 - 12) =      1.79529  eV     1   --> A''            
     e( 13 - 13) =      2.06436  eV     1   --> A'             
     e( 14 - 14) =      4.74917  eV     1   --> A'             
     e( 15 - 15) =      5.25387  eV     1   --> A'             
     e( 16 - 16) =      5.42436  eV     1   --> A''            
     e( 17 - 17) =      6.86485  eV     1   --> A''            
     e( 18 - 18) =      9.33305  eV     1   --> A'             
     e( 19 - 19) =     10.76656  eV     1   --> A''            
     e( 20 - 20) =     11.72599  eV     1   --> A'             
     e( 21 - 21) =     12.54565  eV     1   --> A'             
     e( 22 - 22) =     12.65382  eV     1   --> A''            
     e( 23 - 23) =     13.19732  eV     1   --> A'             
     e( 24 - 24) =     14.35533  eV     1   --> A'             
     e( 25 - 25) =     14.40378  eV     1   --> A''            
     e( 26 - 26) =     15.14920  eV     1   --> A'             
     e( 27 - 27) =     15.15166  eV     1   --> A''            
     e( 28 - 28) =     16.90483  eV     1   --> A'             
     e( 29 - 29) =     17.56943  eV     1   --> A''            
     e( 30 - 30) =     18.26912  eV     1   --> A'             

 **************************************************************************

 **************************************************************************

                    xk=(   0.33067,   0.00000,   0.00000  )

     Band symmetry, C_s (m)     point group:

     e(  1 -  1) =    -58.07386  eV     1   --> A'             
     e(  2 -  2) =    -32.23127  eV     1   --> A'             
     e(  3 -  3) =    -32.17375  eV     1   --> A''            
     e(  4 -  4) =    -32.09078  eV     1   --> A'             
     e(  5 -  5) =    -10.19269  eV     1   --> A'             
     e(  6 -  6) =     -9.51569  eV     1   --> A''            
     e(  7 -  7) =     -2.06598  eV     1   --> A'             
     e(  8 -  8) =     -0.99989  eV     1   --> A'             
     e(  9 -  9) =     -0.80996  eV     1   --> A''            
     e( 10 - 10) =     -0.33985  eV     1   --> A''            
     e( 11 - 11) =      0.86511  eV     1   --> A'             
     e( 12 - 12) =      1.75977  eV     1   --> A''            
     e( 13 - 13) =      2.03579  eV     1   --> A'             
     e( 14 - 14) =      4.73760  eV     1   --> A'             
     e( 15 - 15) =      5.26498  eV     1   --> A'             
     e( 16 - 16) =      5.46988  eV     1   --> A''            
     e( 17 - 17) =      6.93552  eV     1   --> A''            
     e( 18 - 18) =      9.46406  eV     1   --> A'             
     e( 19 - 19) =     10.86012  eV     1   --> A''            
     e( 20 - 20) =     11.65803  eV     1   --> A'             
     e( 21 - 21) =     12.59811  eV     1   --> A''            
     e( 22 - 22) =     12.64155  eV     1   --> A'             
     e( 23 - 23) =     13.23937  eV     1   --> A'             
     e( 24 - 24) =     14.32747  eV     1   --> A'             
     e( 25 - 25) =     14.45144  eV     1   --> A''            
     e( 26 - 26) =     14.94969  eV     1   --> A'             
     e( 27 - 27) =     15.14497  eV     1   --> A''            
     e( 28 - 28) =     17.06569  eV     1   --> A'             
     e( 29 - 29) =     17.55760  eV     1   --> A''            
     e( 30 - 30) =     18.29893  eV     1   --> A'             

 **************************************************************************

 **************************************************************************

                    xk=(   0.34720,   0.00000,   0.00000  )

     Band symmetry, C_s (m)     point group:

     e(  1 -  1) =    -58.07223  eV     1   --> A'             
     e(  2 -  2) =    -32.24408  eV     1   --> A'             
     e(  3 -  3) =    -32.17046  eV     1   --> A''            
     e(  4 -  4) =    -32.09782  eV     1   --> A'             
     e(  5 -  5) =    -10.10733  eV     1   --> A'             
     e(  6 -  6) =     -9.47955  eV     1   --> A''            
     e(  7 -  7) =     -2.08650  eV     1   --> A'             
     e(  8 -  8) =     -0.98770  eV     1   --> A'             
     e(  9 -  9) =     -0.94064  eV     1   --> A''            
     e( 10 - 10) =     -0.39305  eV     1   --> A''            
     e( 11 - 11) =      0.82251  eV     1   --> A'             
     e( 12 - 12) =      1.71887  eV     1   --> A''            
     e( 13 - 13) =      2.02188  eV     1   --> A'             
     e( 14 - 14) =      4.73865  eV     1   --> A'             
     e( 15 - 15) =      5.27914  eV     1   --> A'             
     e( 16 - 16) =      5.51843  eV     1   --> A''            
     e( 17 - 17) =      6.99965  eV     1   --> A''            
     e( 18 - 18) =      9.59878  eV     1   --> A'             
     e( 19 - 19) =     10.95381  eV     1   --> A''            
     e( 20 - 20) =     11.56269  eV     1   --> A'             
     e( 21 - 21) =     12.55929  eV     1   --> A''            
     e( 22 - 22) =     12.71772  eV     1   --> A'             
     e( 23 - 23) =     13.29581  eV     1   --> A'             
     e( 24 - 24) =     14.27586  eV     1   --> A'             
     e( 25 - 25) =     14.48971  eV     1   --> A''            
     e( 26 - 26) =     14.81106  eV     1   --> A'             
     e( 27 - 27) =     15.15264  eV     1   --> A''            
     e( 28 - 28) =     17.20491  eV     1   --> A'             
     e( 29 - 29) =     17.49295  eV     1   --> A''            
     e( 30 - 30) =     18.31579  eV     1   --> A'             

 **************************************************************************

 **************************************************************************

                    xk=(   0.36373,   0.00000,   0.00000  )

     Band symmetry, C_s (m)     point group:

     e(  1 -  1) =    -58.07064  eV     1   --> A'             
     e(  2 -  2) =    -32.25612  eV     1   --> A'             
     e(  3 -  3) =    -32.16726  eV     1   --> A''            
     e(  4 -  4) =    -32.10518  eV     1   --> A'             
     e(  5 -  5) =    -10.02208  eV     1   --> A'             
     e(  6 -  6) =     -9.44336  eV     1   --> A''            
     e(  7 -  7) =     -2.11470  eV     1   --> A'             
     e(  8 -  8) =     -1.07580  eV     1   --> A''            
     e(  9 -  9) =     -0.96524  eV     1   --> A'             
     e( 10 - 10) =     -0.43168  eV     1   --> A''            
     e( 11 - 11) =      0.76129  eV     1   --> A'             
     e( 12 - 12) =      1.67287  eV     1   --> A''            
     e( 13 - 13) =      2.02140  eV     1   --> A'             
     e( 14 - 14) =      4.75316  eV     1   --> A'             
     e( 15 - 15) =      5.29474  eV     1   --> A'             
     e( 16 - 16) =      5.56886  eV     1   --> A''            
     e( 17 - 17) =      7.05711  eV     1   --> A''            
     e( 18 - 18) =      9.73623  eV     1   --> A'             
     e( 19 - 19) =     11.04732  eV     1   --> A''            
     e( 20 - 20) =     11.45191  eV     1   --> A'             
     e( 21 - 21) =     12.53833  eV     1   --> A''            
     e( 22 - 22) =     12.75620  eV     1   --> A'             
     e( 23 - 23) =     13.36250  eV     1   --> A'             
     e( 24 - 24) =     14.20026  eV     1   --> A'             
     e( 25 - 25) =     14.52342  eV     1   --> A''            
     e( 26 - 26) =     14.74778  eV     1   --> A'             
     e( 27 - 27) =     15.17094  eV     1   --> A''            
     e( 28 - 28) =     17.31916  eV     1   --> A'             
     e( 29 - 29) =     17.38494  eV     1   --> A''            
     e( 30 - 30) =     18.28535  eV     1   --> A'             

 **************************************************************************

 **************************************************************************

                    xk=(   0.38027,   0.00000,   0.00000  )

     Band symmetry, C_s (m)     point group:

     e(  1 -  1) =    -58.06909  eV     1   --> A'             
     e(  2 -  2) =    -32.26727  eV     1   --> A'             
     e(  3 -  3) =    -32.16414  eV     1   --> A''            
     e(  4 -  4) =    -32.11282  eV     1   --> A'             
     e(  5 -  5) =     -9.93756  eV     1   --> A'             
     e(  6 -  6) =     -9.40735  eV     1   --> A''            
     e(  7 -  7) =     -2.14673  eV     1   --> A'             
     e(  8 -  8) =     -1.21219  eV     1   --> A''            
     e(  9 -  9) =     -0.93664  eV     1   --> A'             
     e( 10 - 10) =     -0.45806  eV     1   --> A''            
     e( 11 - 11) =      0.68438  eV     1   --> A'             
     e( 12 - 12) =      1.62209  eV     1   --> A''            
     e( 13 - 13) =      2.03221  eV     1   --> A'             
     e( 14 - 14) =      4.78097  eV     1   --> A'             
     e( 15 - 15) =      5.31053  eV     1   --> A'             
     e( 16 - 16) =      5.61999  eV     1   --> A''            
     e( 17 - 17) =      7.10809  eV     1   --> A''            
     e( 18 - 18) =      9.87481  eV     1   --> A'             
     e( 19 - 19) =     11.14047  eV     1   --> A''            
     e( 20 - 20) =     11.33393  eV     1   --> A'             
     e( 21 - 21) =     12.53585  eV     1   --> A''            
     e( 22 - 22) =     12.74532  eV     1   --> A'             
     e( 23 - 23) =     13.43340  eV     1   --> A'             
     e( 24 - 24) =     14.12921  eV     1   --> A'             
     e( 25 - 25) =     14.55659  eV     1   --> A''            
     e( 26 - 26) =     14.74460  eV     1   --> A'             
     e( 27 - 27) =     15.19645  eV     1   --> A''            
     e( 28 - 28) =     17.24567  eV     1   --> A''            
     e( 29 - 29) =     17.40819  eV     1   --> A'             
     e( 30 - 30) =     18.18493  eV     1   --> A'             

 **************************************************************************

 **************************************************************************

                    xk=(   0.39680,   0.00000,   0.00000  )

     Band symmetry, C_s (m)     point group:

     e(  1 -  1) =    -58.06760  eV     1   --> A'             
     e(  2 -  2) =    -32.27747  eV     1   --> A'             
     e(  3 -  3) =    -32.16114  eV     1   --> A''            
     e(  4 -  4) =    -32.12073  eV     1   --> A'             
     e(  5 -  5) =     -9.85439  eV     1   --> A'             
     e(  6 -  6) =     -9.37176  eV     1   --> A''            
     e(  7 -  7) =     -2.17912  eV     1   --> A'             
     e(  8 -  8) =     -1.34735  eV     1   --> A''            
     e(  9 -  9) =     -0.90561  eV     1   --> A'             
     e( 10 - 10) =     -0.47382  eV     1   --> A''            
     e( 11 - 11) =      0.59503  eV     1   --> A'             
     e( 12 - 12) =      1.56688  eV     1   --> A''            
     e( 13 - 13) =      2.05222  eV     1   --> A'             
     e( 14 - 14) =      4.82058  eV     1   --> A'             
     e( 15 - 15) =      5.32602  eV     1   --> A'             
     e( 16 - 16) =      5.67051  eV     1   --> A''            
     e( 17 - 17) =      7.15311  eV     1   --> A''            
     e( 18 - 18) =     10.01173  eV     1   --> A'             
     e( 19 - 19) =     11.21569  eV     1   --> A'             
     e( 20 - 20) =     11.23319  eV     1   --> A''            
     e( 21 - 21) =     12.55212  eV     1   --> A''            
     e( 22 - 22) =     12.68157  eV     1   --> A'             
     e( 23 - 23) =     13.50578  eV     1   --> A'             
     e( 24 - 24) =     14.08913  eV     1   --> A'             
     e( 25 - 25) =     14.59148  eV     1   --> A''            
     e( 26 - 26) =     14.77893  eV     1   --> A'             
     e( 27 - 27) =     15.22688  eV     1   --> A''            
     e( 28 - 28) =     17.08558  eV     1   --> A''            
     e( 29 - 29) =     17.46855  eV     1   --> A'             
     e( 30 - 30) =     18.03282  eV     1   --> A'             

 **************************************************************************

 **************************************************************************

                    xk=(   0.41333,   0.00000,   0.00000  )

     Band symmetry, C_s (m)     point group:

     e(  1 -  1) =    -58.06618  eV     1   --> A'             
     e(  2 -  2) =    -32.28665  eV     1   --> A'             
     e(  3 -  3) =    -32.15827  eV     1   --> A''            
     e(  4 -  4) =    -32.12890  eV     1   --> A'             
     e(  5 -  5) =     -9.77323  eV     1   --> A'             
     e(  6 -  6) =     -9.33684  eV     1   --> A''            
     e(  7 -  7) =     -2.20898  eV     1   --> A'             
     e(  8 -  8) =     -1.47944  eV     1   --> A''            
     e(  9 -  9) =     -0.87516  eV     1   --> A'             
     e( 10 - 10) =     -0.48010  eV     1   --> A''            
     e( 11 - 11) =      0.49614  eV     1   --> A'             
     e( 12 - 12) =      1.50766  eV     1   --> A''            
     e( 13 - 13) =      2.07987  eV     1   --> A'             
     e( 14 - 14) =      4.86861  eV     1   --> A'             
     e( 15 - 15) =      5.34206  eV     1   --> A'             
     e( 16 - 16) =      5.71906  eV     1   --> A''            
     e( 17 - 17) =      7.19302  eV     1   --> A''            
     e( 18 - 18) =     10.14172  eV     1   --> A'             
     e( 19 - 19) =     11.10493  eV     1   --> A'             
     e( 20 - 20) =     11.32557  eV     1   --> A''            
     e( 21 - 21) =     12.57339  eV     1   --> A'             
     e( 22 - 22) =     12.58709  eV     1   --> A''            
     e( 23 - 23) =     13.58176  eV     1   --> A'             
     e( 24 - 24) =     14.08232  eV     1   --> A'             
     e( 25 - 25) =     14.62833  eV     1   --> A''            
     e( 26 - 26) =     14.83683  eV     1   --> A'             
     e( 27 - 27) =     15.26128  eV     1   --> A''            
     e( 28 - 28) =     16.91277  eV     1   --> A''            
     e( 29 - 29) =     17.48098  eV     1   --> A'             
     e( 30 - 30) =     17.87206  eV     1   --> A'             

 **************************************************************************

 **************************************************************************

                    xk=(   0.42987,   0.00000,   0.00000  )

     Band symmetry, C_s (m)     point group:

     e(  1 -  1) =    -58.06483  eV     1   --> A'             
     e(  2 -  2) =    -32.29468  eV     1   --> A'             
     e(  3 -  3) =    -32.15555  eV     1   --> A''            
     e(  4 -  4) =    -32.13730  eV     1   --> A'             
     e(  5 -  5) =     -9.69472  eV     1   --> A'             
     e(  6 -  6) =     -9.30285  eV     1   --> A''            
     e(  7 -  7) =     -2.23396  eV     1   --> A'             
     e(  8 -  8) =     -1.60705  eV     1   --> A''            
     e(  9 -  9) =     -0.84759  eV     1   --> A'             
     e( 10 - 10) =     -0.47774  eV     1   --> A''            
     e( 11 - 11) =      0.39015  eV     1   --> A'             
     e( 12 - 12) =      1.44489  eV     1   --> A''            
     e( 13 - 13) =      2.11427  eV     1   --> A'             
     e( 14 - 14) =      4.91908  eV     1   --> A'             
     e( 15 - 15) =      5.36180  eV     1   --> A'             
     e( 16 - 16) =      5.76429  eV     1   --> A''            
     e( 17 - 17) =      7.22895  eV     1   --> A''            
     e( 18 - 18) =     10.25443  eV     1   --> A'             
     e( 19 - 19) =     11.01294  eV     1   --> A'             
     e( 20 - 20) =     11.41779  eV     1   --> A''            
     e( 21 - 21) =     12.43806  eV     1   --> A'             
     e( 22 - 22) =     12.64037  eV     1   --> A''            
     e( 23 - 23) =     13.66441  eV     1   --> A'             
     e( 24 - 24) =     14.09686  eV     1   --> A'             
     e( 25 - 25) =     14.66551  eV     1   --> A''            
     e( 26 - 26) =     14.90993  eV     1   --> A'             
     e( 27 - 27) =     15.29980  eV     1   --> A''            
     e( 28 - 28) =     16.73371  eV     1   --> A''            
     e( 29 - 29) =     17.40561  eV     1   --> A'             
     e( 30 - 30) =     17.74054  eV     1   --> A'             

 **************************************************************************

 **************************************************************************

                    xk=(   0.44640,   0.00000,   0.00000  )

     Band symmetry, C_s (m)     point group:

     e(  1 -  1) =    -58.06355  eV     1   --> A'             
     e(  2 -  2) =    -32.30153  eV     1   --> A'             
     e(  3 -  3) =    -32.15299  eV     1   --> A''            
     e(  4 -  4) =    -32.14593  eV     1   --> A'             
     e(  5 -  5) =     -9.61949  eV     1   --> A'             
     e(  6 -  6) =     -9.27002  eV     1   --> A''            
     e(  7 -  7) =     -2.25222  eV     1   --> A'             
     e(  8 -  8) =     -1.72905  eV     1   --> A''            
     e(  9 -  9) =     -0.82455  eV     1   --> A'             
     e( 10 - 10) =     -0.46743  eV     1   --> A''            
     e( 11 - 11) =      0.27895  eV     1   --> A'             
     e( 12 - 12) =      1.37908  eV     1   --> A''            
     e( 13 - 13) =      2.15501  eV     1   --> A'             
     e( 14 - 14) =      4.96272  eV     1   --> A'             
     e( 15 - 15) =      5.39137  eV     1   --> A'             
     e( 16 - 16) =      5.80485  eV     1   --> A''            
     e( 17 - 17) =      7.26221  eV     1   --> A''            
     e( 18 - 18) =     10.33092  eV     1   --> A'             
     e( 19 - 19) =     10.95770  eV     1   --> A'             
     e( 20 - 20) =     11.51011  eV     1   --> A''            
     e( 21 - 21) =     12.29425  eV     1   --> A'             
     e( 22 - 22) =     12.71126  eV     1   --> A''            
     e( 23 - 23) =     13.75465  eV     1   --> A'             
     e( 24 - 24) =     14.12122  eV     1   --> A'             
     e( 25 - 25) =     14.69990  eV     1   --> A''            
     e( 26 - 26) =     14.99148  eV     1   --> A'             
     e( 27 - 27) =     15.34314  eV     1   --> A''            
     e( 28 - 28) =     16.55400  eV     1   --> A''            
     e( 29 - 29) =     17.24968  eV     1   --> A'             
     e( 30 - 30) =     17.60765  eV     1   --> A'             

 **************************************************************************

 **************************************************************************

                    xk=(   0.46293,   0.00000,   0.00000  )

     Band symmetry, C_s (m)     point group:

     e(  1 -  1) =    -58.06237  eV     1   --> A'             
     e(  2 -  2) =    -32.30714  eV     1   --> A'             
     e(  3 -  3) =    -32.15473  eV     1   --> A'             
     e(  4 -  4) =    -32.15058  eV     1   --> A''            
     e(  5 -  5) =     -9.54818  eV     1   --> A'             
     e(  6 -  6) =     -9.23862  eV     1   --> A''            
     e(  7 -  7) =     -2.26228  eV     1   --> A'             
     e(  8 -  8) =     -1.84452  eV     1   --> A''            
     e(  9 -  9) =     -0.80714  eV     1   --> A'             
     e( 10 - 10) =     -0.44981  eV     1   --> A''            
     e( 11 - 11) =      0.16411  eV     1   --> A'             
     e( 12 - 12) =      1.31079  eV     1   --> A''            
     e( 13 - 13) =      2.20187  eV     1   --> A'             
     e( 14 - 14) =      4.98883  eV     1   --> A'             
     e( 15 - 15) =      5.43850  eV     1   --> A'             
     e( 16 - 16) =      5.83956  eV     1   --> A''            
     e( 17 - 17) =      7.29411  eV     1   --> A''            
     e( 18 - 18) =     10.35020  eV     1   --> A'             
     e( 19 - 19) =     10.95620  eV     1   --> A'             
     e( 20 - 20) =     11.60277  eV     1   --> A''            
     e( 21 - 21) =     12.15917  eV     1   --> A'             
     e( 22 - 22) =     12.79877  eV     1   --> A''            
     e( 23 - 23) =     13.85123  eV     1   --> A'             
     e( 24 - 24) =     14.14927  eV     1   --> A'             
     e( 25 - 25) =     14.72752  eV     1   --> A''            
     e( 26 - 26) =     15.07486  eV     1   --> A'             
     e( 27 - 27) =     15.39152  eV     1   --> A''            
     e( 28 - 28) =     16.37915  eV     1   --> A''            
     e( 29 - 29) =     17.06566  eV     1   --> A'             
     e( 30 - 30) =     17.43720  eV     1   --> A'             

 **************************************************************************

 **************************************************************************

                    xk=(   0.47947,   0.00000,   0.00000  )

     Band symmetry, C_s (m)     point group:

     e(  1 -  1) =    -58.06127  eV     1   --> A'             
     e(  2 -  2) =    -32.31146  eV     1   --> A'             
     e(  3 -  3) =    -32.16371  eV     1   --> A'             
     e(  4 -  4) =    -32.14837  eV     1   --> A''            
     e(  5 -  5) =     -9.48134  eV     1   --> A'             
     e(  6 -  6) =     -9.20889  eV     1   --> A''            
     e(  7 -  7) =     -2.26300  eV     1   --> A'             
     e(  8 -  8) =     -1.95268  eV     1   --> A''            
     e(  9 -  9) =     -0.79601  eV     1   --> A'             
     e( 10 - 10) =     -0.42551  eV     1   --> A''            
     e( 11 - 11) =      0.04697  eV     1   --> A'             
     e( 12 - 12) =      1.24065  eV     1   --> A''            
     e( 13 - 13) =      2.25457  eV     1   --> A'             
     e( 14 - 14) =      4.99065  eV     1   --> A'             
     e( 15 - 15) =      5.50716  eV     1   --> A'             
     e( 16 - 16) =      5.86748  eV     1   --> A''            
     e( 17 - 17) =      7.32586  eV     1   --> A''            
     e( 18 - 18) =     10.31488  eV     1   --> A'             
     e( 19 - 19) =     10.99675  eV     1   --> A'             
     e( 20 - 20) =     11.69595  eV     1   --> A''            
     e( 21 - 21) =     12.05066  eV     1   --> A'             
     e( 22 - 22) =     12.90165  eV     1   --> A''            
     e( 23 - 23) =     13.95123  eV     1   --> A'             
     e( 24 - 24) =     14.17961  eV     1   --> A'             
     e( 25 - 25) =     14.74452  eV     1   --> A''            
     e( 26 - 26) =     15.15344  eV     1   --> A'             
     e( 27 - 27) =     15.44283  eV     1   --> A''            
     e( 28 - 28) =     16.21584  eV     1   --> A''            
     e( 29 - 29) =     16.88237  eV     1   --> A'             
     e( 30 - 30) =     17.24702  eV     1   --> A'             

 **************************************************************************

 **************************************************************************

                    xk=(   0.49600,   0.00000,   0.00000  )

     Band symmetry, C_s (m)     point group:

     e(  1 -  1) =    -58.06027  eV     1   --> A'             
     e(  2 -  2) =    -32.31450  eV     1   --> A'             
     e(  3 -  3) =    -32.17282  eV     1   --> A'             
     e(  4 -  4) =    -32.14635  eV     1   --> A''            
     e(  5 -  5) =     -9.41953  eV     1   --> A'             
     e(  6 -  6) =     -9.18106  eV     1   --> A''            
     e(  7 -  7) =     -2.25352  eV     1   --> A'             
     e(  8 -  8) =     -2.05285  eV     1   --> A''            
     e(  9 -  9) =     -0.79157  eV     1   --> A'             
     e( 10 - 10) =     -0.39521  eV     1   --> A''            
     e( 11 - 11) =     -0.07112  eV     1   --> A'             
     e( 12 - 12) =      1.16934  eV     1   --> A''            
     e( 13 - 13) =      2.31260  eV     1   --> A'             
     e( 14 - 14) =      4.96884  eV     1   --> A'             
     e( 15 - 15) =      5.59426  eV     1   --> A'             
     e( 16 - 16) =      5.88803  eV     1   --> A''            
     e( 17 - 17) =      7.35838  eV     1   --> A''            
     e( 18 - 18) =     10.24958  eV     1   --> A'             
     e( 19 - 19) =     11.03917  eV     1   --> A'             
     e( 20 - 20) =     11.78960  eV     1   --> A''            
     e( 21 - 21) =     11.98988  eV     1   --> A'             
     e( 22 - 22) =     13.01848  eV     1   --> A''            
     e( 23 - 23) =     14.04918  eV     1   --> A'             
     e( 24 - 24) =     14.21459  eV     1   --> A'             
     e( 25 - 25) =     14.74794  eV     1   --> A''            
     e( 26 - 26) =     15.22081  eV     1   --> A'             
     e( 27 - 27) =     15.48957  eV     1   --> A''            
     e( 28 - 28) =     16.07423  eV     1   --> A''            
     e( 29 - 29) =     16.71242  eV     1   --> A'             
     e( 30 - 30) =     17.05461  eV     1   --> A'             

 **************************************************************************

 **************************************************************************

                    xk=(   0.51253,   0.00000,   0.00000  )

     Band symmetry, C_s (m)     point group:

     e(  1 -  1) =    -58.05937  eV     1   --> A'             
     e(  2 -  2) =    -32.31625  eV     1   --> A'             
     e(  3 -  3) =    -32.18201  eV     1   --> A'             
     e(  4 -  4) =    -32.14453  eV     1   --> A''            
     e(  5 -  5) =     -9.36319  eV     1   --> A'             
     e(  6 -  6) =     -9.15537  eV     1   --> A''            
     e(  7 -  7) =     -2.23322  eV     1   --> A'             
     e(  8 -  8) =     -2.14448  eV     1   --> A''            
     e(  9 -  9) =     -0.79422  eV     1   --> A'             
     e( 10 - 10) =     -0.35969  eV     1   --> A''            
     e( 11 - 11) =     -0.18860  eV     1   --> A'             
     e( 12 - 12) =      1.09763  eV     1   --> A''            
     e( 13 - 13) =      2.37510  eV     1   --> A'             
     e( 14 - 14) =      4.92813  eV     1   --> A'             
     e( 15 - 15) =      5.69314  eV     1   --> A'             
     e( 16 - 16) =      5.90111  eV     1   --> A''            
     e( 17 - 17) =      7.39212  eV     1   --> A''            
     e( 18 - 18) =     10.17479  eV     1   --> A'             
     e( 19 - 19) =     11.04696  eV     1   --> A'             
     e( 20 - 20) =     11.88339  eV     1   --> A''            
     e( 21 - 21) =     11.99626  eV     1   --> A'             
     e( 22 - 22) =     13.14760  eV     1   --> A''            
     e( 23 - 23) =     14.13451  eV     1   --> A'             
     e( 24 - 24) =     14.26120  eV     1   --> A'             
     e( 25 - 25) =     14.73623  eV     1   --> A''            
     e( 26 - 26) =     15.27175  eV     1   --> A'             
     e( 27 - 27) =     15.51451  eV     1   --> A''            
     e( 28 - 28) =     15.97186  eV     1   --> A''            
     e( 29 - 29) =     16.56268  eV     1   --> A'             
     e( 30 - 30) =     16.86924  eV     1   --> A'             

 **************************************************************************

 **************************************************************************

                    xk=(   0.52906,   0.00000,   0.00000  )

     Band symmetry, C_s (m)     point group:

     e(  1 -  1) =    -58.05858  eV     1   --> A'             
     e(  2 -  2) =    -32.31675  eV     1   --> A'             
     e(  3 -  3) =    -32.19126  eV     1   --> A'             
     e(  4 -  4) =    -32.14293  eV     1   --> A''            
     e(  5 -  5) =     -9.31271  eV     1   --> A'             
     e(  6 -  6) =     -9.13201  eV     1   --> A''            
     e(  7 -  7) =     -2.22711  eV     1   --> A''            
     e(  8 -  8) =     -2.20177  eV     1   --> A'             
     e(  9 -  9) =     -0.80469  eV     1   --> A'             
     e( 10 - 10) =     -0.31987  eV     1   --> A''            
     e( 11 - 11) =     -0.30338  eV     1   --> A'             
     e( 12 - 12) =      1.02640  eV     1   --> A''            
     e( 13 - 13) =      2.44078  eV     1   --> A'             
     e( 14 - 14) =      4.87376  eV     1   --> A'             
     e( 15 - 15) =      5.79718  eV     1   --> A'             
     e( 16 - 16) =      5.90706  eV     1   --> A''            
     e( 17 - 17) =      7.42704  eV     1   --> A''            
     e( 18 - 18) =     10.10188  eV     1   --> A'             
     e( 19 - 19) =     11.00886  eV     1   --> A'             
     e( 20 - 20) =     11.97662  eV     1   --> A''            
     e( 21 - 21) =     12.07155  eV     1   --> A'             
     e( 22 - 22) =     13.28712  eV     1   --> A''            
     e( 23 - 23) =     14.19507  eV     1   --> A'             
     e( 24 - 24) =     14.32622  eV     1   --> A'             
     e( 25 - 25) =     14.70927  eV     1   --> A''            
     e( 26 - 26) =     15.30422  eV     1   --> A'             
     e( 27 - 27) =     15.49571  eV     1   --> A''            
     e( 28 - 28) =     15.92842  eV     1   --> A''            
     e( 29 - 29) =     16.43538  eV     1   --> A'             
     e( 30 - 30) =     16.69796  eV     1   --> A'             

 **************************************************************************

 **************************************************************************

                    xk=(   0.54560,   0.00000,   0.00000  )

     Band symmetry, C_s (m)     point group:

     e(  1 -  1) =    -58.05788  eV     1   --> A'             
     e(  2 -  2) =    -32.31599  eV     1   --> A'             
     e(  3 -  3) =    -32.20051  eV     1   --> A'             
     e(  4 -  4) =    -32.14153  eV     1   --> A''            
     e(  5 -  5) =     -9.26836  eV     1   --> A'             
     e(  6 -  6) =     -9.11116  eV     1   --> A''            
     e(  7 -  7) =     -2.30032  eV     1   --> A''            
     e(  8 -  8) =     -2.15914  eV     1   --> A'             
     e(  9 -  9) =     -0.82460  eV     1   --> A'             
     e( 10 - 10) =     -0.41225  eV     1   --> A'             
     e( 11 - 11) =     -0.27684  eV     1   --> A''            
     e( 12 - 12) =      0.95668  eV     1   --> A''            
     e( 13 - 13) =      2.50793  eV     1   --> A'             
     e( 14 - 14) =      4.81046  eV     1   --> A'             
     e( 15 - 15) =      5.90085  eV     1   --> A'             
     e( 16 - 16) =      5.90674  eV     1   --> A''            
     e( 17 - 17) =      7.46266  eV     1   --> A''            
     e( 18 - 18) =     10.03733  eV     1   --> A'             
     e( 19 - 19) =     10.93691  eV     1   --> A'             
     e( 20 - 20) =     12.06807  eV     1   --> A''            
     e( 21 - 21) =     12.19790  eV     1   --> A'             
     e( 22 - 22) =     13.43478  eV     1   --> A''            
     e( 23 - 23) =     14.23431  eV     1   --> A'             
     e( 24 - 24) =     14.39812  eV     1   --> A'             
     e( 25 - 25) =     14.66860  eV     1   --> A''            
     e( 26 - 26) =     15.32233  eV     1   --> A'             
     e( 27 - 27) =     15.43710  eV     1   --> A''            
     e( 28 - 28) =     15.93493  eV     1   --> A''            
     e( 29 - 29) =     16.32524  eV     1   --> A'             
     e( 30 - 30) =     16.54967  eV     1   --> A'             

 **************************************************************************

 **************************************************************************

                    xk=(   0.56213,   0.00000,   0.00000  )

     Band symmetry, C_s (m)     point group:

     e(  1 -  1) =    -58.05729  eV     1   --> A'             
     e(  2 -  2) =    -32.31406  eV     1   --> A'             
     e(  3 -  3) =    -32.20970  eV     1   --> A'             
     e(  4 -  4) =    -32.14036  eV     1   --> A''            
     e(  5 -  5) =     -9.23033  eV     1   --> A'             
     e(  6 -  6) =     -9.09298  eV     1   --> A''            
     e(  7 -  7) =     -2.36384  eV     1   --> A''            
     e(  8 -  8) =     -2.10569  eV     1   --> A'             
     e(  9 -  9) =     -0.85714  eV     1   --> A'             
     e( 10 - 10) =     -0.51028  eV     1   --> A'             
     e( 11 - 11) =     -0.23198  eV     1   --> A''            
     e( 12 - 12) =      0.88969  eV     1   --> A''            
     e( 13 - 13) =      2.57442  eV     1   --> A'             
     e( 14 - 14) =      4.74265  eV     1   --> A'             
     e( 15 - 15) =      5.90132  eV     1   --> A''            
     e( 16 - 16) =      5.99947  eV     1   --> A'             
     e( 17 - 17) =      7.49801  eV     1   --> A''            
     e( 18 - 18) =      9.98547  eV     1   --> A'             
     e( 19 - 19) =     10.84728  eV     1   --> A'             
     e( 20 - 20) =     12.15598  eV     1   --> A''            
     e( 21 - 21) =     12.35425  eV     1   --> A'             
     e( 22 - 22) =     13.58758  eV     1   --> A''            
     e( 23 - 23) =     14.26023  eV     1   --> A'             
     e( 24 - 24) =     14.45863  eV     1   --> A'             
     e( 25 - 25) =     14.61786  eV     1   --> A''            
     e( 26 - 26) =     15.33726  eV     1   --> A'             
     e( 27 - 27) =     15.36570  eV     1   --> A''            
     e( 28 - 28) =     15.95632  eV     1   --> A''            
     e( 29 - 29) =     16.21967  eV     1   --> A'             
     e( 30 - 30) =     16.43475  eV     1   --> A'             

 **************************************************************************

 **************************************************************************

                    xk=(   0.57866,   0.00000,   0.00000  )

     Band symmetry, C_s (m)     point group:

     e(  1 -  1) =    -58.05679  eV     1   --> A'             
     e(  2 -  2) =    -32.31106  eV     1   --> A'             
     e(  3 -  3) =    -32.21873  eV     1   --> A'             
     e(  4 -  4) =    -32.13937  eV     1   --> A''            
     e(  5 -  5) =     -9.19869  eV     1   --> A'             
[...]
     e(  8 -  8) =     -0.08967  eV     1   --> A'             
     e(  9 -  9) =      0.38088  eV     1   --> A'             
     e( 10 - 10) =      0.45616  eV     1   --> A''            
     e( 11 - 11) =      1.10657  eV     1   --> A''            
     e( 12 - 12) =      1.70426  eV     1   --> A''            
     e( 13 - 13) =      2.72221  eV     1   --> A'             
     e( 14 - 14) =      5.39746  eV     1   --> A''            
     e( 15 - 15) =      5.41860  eV     1   --> A'             
     e( 16 - 16) =      5.63069  eV     1   --> A'             
     e( 17 - 17) =      5.81188  eV     1   --> A''            
     e( 18 - 18) =      8.15313  eV     1   --> A'             
     e( 19 - 19) =      9.82387  eV     1   --> A'             
     e( 20 - 20) =      9.83495  eV     1   --> A''            
     e( 21 - 21) =     12.41006  eV     1   --> A''            
     e( 22 - 22) =     12.48078  eV     1   --> A'             
     e( 23 - 23) =     13.37546  eV     1   --> A'             
     e( 24 - 24) =     14.08838  eV     1   --> A'             
     e( 25 - 25) =     14.69210  eV     1   --> A''            
     e( 26 - 26) =     15.48302  eV     1   --> A'             
     e( 27 - 27) =     15.72280  eV     1   --> A''            
     e( 28 - 28) =     17.06762  eV     1   --> A''            
     e( 29 - 29) =     18.25539  eV     1   --> A''            
     e( 30 - 30) =     18.44661  eV     1   --> A'             

 **************************************************************************

 **************************************************************************

                    xk=(   0.08680,   0.05012,   0.00000  )

     Band symmetry, C_s (m)     point group:

     e(  1 -  1) =    -58.09375  eV     1   --> A'             
     e(  2 -  2) =    -32.21383  eV     1   --> A''            
     e(  3 -  3) =    -32.04850  eV     1   --> A'             
     e(  4 -  4) =    -32.02742  eV     1   --> A'             
     e(  5 -  5) =    -11.12128  eV     1   --> A'             
     e(  6 -  6) =     -9.90625  eV     1   --> A''            
     e(  7 -  7) =     -2.63735  eV     1   --> A'             
     e(  8 -  8) =     -0.02053  eV     1   --> A'             
     e(  9 -  9) =      0.34593  eV     1   --> A'             
     e( 10 - 10) =      0.55012  eV     1   --> A''            
     e( 11 - 11) =      1.15592  eV     1   --> A''            
     e( 12 - 12) =      1.66911  eV     1   --> A''            
     e( 13 - 13) =      2.74369  eV     1   --> A'             
     e( 14 - 14) =      5.42378  eV     1   --> A''            
     e( 15 - 15) =      5.48865  eV     1   --> A'             
     e( 16 - 16) =      5.66487  eV     1   --> A'             
     e( 17 - 17) =      5.75954  eV     1   --> A''            
     e( 18 - 18) =      8.09987  eV     1   --> A'             
     e( 19 - 19) =      9.68695  eV     1   --> A'             
     e( 20 - 20) =      9.79503  eV     1   --> A''            
     e( 21 - 21) =     12.27794  eV     1   --> A''            
     e( 22 - 22) =     12.47770  eV     1   --> A'             
     e( 23 - 23) =     13.42042  eV     1   --> A'             
     e( 24 - 24) =     13.98547  eV     1   --> A'             
     e( 25 - 25) =     14.85865  eV     1   --> A''            
     e( 26 - 26) =     15.51826  eV     1   --> A'             
     e( 27 - 27) =     15.70034  eV     1   --> A''            
     e( 28 - 28) =     17.10526  eV     1   --> A''            
     e( 29 - 29) =     18.34287  eV     1   --> A''            
     e( 30 - 30) =     18.52660  eV     1   --> A'             

 **************************************************************************

 **************************************************************************

                    xk=(   0.07440,   0.04296,   0.00000  )

     Band symmetry, C_s (m)     point group:

     e(  1 -  1) =    -58.09444  eV     1   --> A'             
     e(  2 -  2) =    -32.21522  eV     1   --> A''            
     e(  3 -  3) =    -32.04144  eV     1   --> A'             
     e(  4 -  4) =    -32.02582  eV     1   --> A'             
     e(  5 -  5) =    -11.15045  eV     1   --> A'             
     e(  6 -  6) =     -9.91849  eV     1   --> A''            
     e(  7 -  7) =     -2.67037  eV     1   --> A'             
     e(  8 -  8) =      0.04192  eV     1   --> A'             
     e(  9 -  9) =      0.31529  eV     1   --> A'             
     e( 10 - 10) =      0.64258  eV     1   --> A''            
     e( 11 - 11) =      1.20043  eV     1   --> A''            
     e( 12 - 12) =      1.62599  eV     1   --> A''            
     e( 13 - 13) =      2.76095  eV     1   --> A'             
     e( 14 - 14) =      5.45286  eV     1   --> A''            
     e( 15 - 15) =      5.55640  eV     1   --> A'             
     e( 16 - 16) =      5.69571  eV     1   --> A'             
     e( 17 - 17) =      5.71209  eV     1   --> A''            
     e( 18 - 18) =      8.05113  eV     1   --> A'             
     e( 19 - 19) =      9.56329  eV     1   --> A'             
     e( 20 - 20) =      9.75993  eV     1   --> A''            
     e( 21 - 21) =     12.15406  eV     1   --> A''            
     e( 22 - 22) =     12.47208  eV     1   --> A'             
     e( 23 - 23) =     13.46620  eV     1   --> A'             
     e( 24 - 24) =     13.89465  eV     1   --> A'             
     e( 25 - 25) =     15.02471  eV     1   --> A''            
     e( 26 - 26) =     15.54569  eV     1   --> A'             
     e( 27 - 27) =     15.68197  eV     1   --> A''            
     e( 28 - 28) =     17.12722  eV     1   --> A''            
     e( 29 - 29) =     18.44656  eV     1   --> A''            
     e( 30 - 30) =     18.60321  eV     1   --> A'             

 **************************************************************************

 **************************************************************************

                    xk=(   0.06200,   0.03580,   0.00000  )

     Band symmetry, C_s (m)     point group:

     e(  1 -  1) =    -58.09504  eV     1   --> A'             
     e(  2 -  2) =    -32.21641  eV     1   --> A''            
     e(  3 -  3) =    -32.03537  eV     1   --> A'             
     e(  4 -  4) =    -32.02443  eV     1   --> A'             
     e(  5 -  5) =    -11.17530  eV     1   --> A'             
     e(  6 -  6) =     -9.92892  eV     1   --> A''            
     e(  7 -  7) =     -2.69884  eV     1   --> A'             
     e(  8 -  8) =      0.09670  eV     1   --> A'             
     e(  9 -  9) =      0.28911  eV     1   --> A'             
     e( 10 - 10) =      0.73304  eV     1   --> A''            
     e( 11 - 11) =      1.23946  eV     1   --> A''            
     e( 12 - 12) =      1.57598  eV     1   --> A''            
     e( 13 - 13) =      2.77454  eV     1   --> A'             
     e( 14 - 14) =      5.48251  eV     1   --> A''            
     e( 15 - 15) =      5.61951  eV     1   --> A'             
     e( 16 - 16) =      5.67034  eV     1   --> A''            
     e( 17 - 17) =      5.72273  eV     1   --> A'             
     e( 18 - 18) =      8.00745  eV     1   --> A'             
     e( 19 - 19) =      9.45503  eV     1   --> A'             
     e( 20 - 20) =      9.72985  eV     1   --> A''            
     e( 21 - 21) =     12.04271  eV     1   --> A''            
     e( 22 - 22) =     12.46499  eV     1   --> A'             
     e( 23 - 23) =     13.51055  eV     1   --> A'             
     e( 24 - 24) =     13.81661  eV     1   --> A'             
     e( 25 - 25) =     15.18395  eV     1   --> A''            
     e( 26 - 26) =     15.56580  eV     1   --> A'             
     e( 27 - 27) =     15.66728  eV     1   --> A''            
     e( 28 - 28) =     17.13807  eV     1   --> A''            
     e( 29 - 29) =     18.55795  eV     1   --> A''            
     e( 30 - 30) =     18.67677  eV     1   --> A'             

 **************************************************************************

 **************************************************************************

                    xk=(   0.04960,   0.02864,   0.00000  )

     Band symmetry, C_s (m)     point group:

     e(  1 -  1) =    -58.09553  eV     1   --> A'             
     e(  2 -  2) =    -32.21738  eV     1   --> A''            
     e(  3 -  3) =    -32.03038  eV     1   --> A'             
     e(  4 -  4) =    -32.02329  eV     1   --> A'             
     e(  5 -  5) =    -11.19576  eV     1   --> A'             
     e(  6 -  6) =     -9.93751  eV     1   --> A''            
     e(  7 -  7) =     -2.72250  eV     1   --> A'             
     e(  8 -  8) =      0.14288  eV     1   --> A'             
     e(  9 -  9) =      0.26753  eV     1   --> A'             
     e( 10 - 10) =      0.82065  eV     1   --> A''            
     e( 11 - 11) =      1.27238  eV     1   --> A''            
     e( 12 - 12) =      1.52050  eV     1   --> A''            
     e( 13 - 13) =      2.78494  eV     1   --> A'             
     e( 14 - 14) =      5.51053  eV     1   --> A''            
     e( 15 - 15) =      5.63502  eV     1   --> A''            
     e( 16 - 16) =      5.67558  eV     1   --> A'             
     e( 17 - 17) =      5.74549  eV     1   --> A'             
     e( 18 - 18) =      7.96961  eV     1   --> A'             
     e( 19 - 19) =      9.36396  eV     1   --> A'             
     e( 20 - 20) =      9.70495  eV     1   --> A''            
     e( 21 - 21) =     11.94722  eV     1   --> A''            
     e( 22 - 22) =     12.45751  eV     1   --> A'             
     e( 23 - 23) =     13.55112  eV     1   --> A'             
     e( 24 - 24) =     13.75192  eV     1   --> A'             
     e( 25 - 25) =     15.32979  eV     1   --> A''            
     e( 26 - 26) =     15.57954  eV     1   --> A'             
     e( 27 - 27) =     15.65587  eV     1   --> A''            
     e( 28 - 28) =     17.14197  eV     1   --> A''            
     e( 29 - 29) =     18.66817  eV     1   --> A''            
     e( 30 - 30) =     18.74781  eV     1   --> A'             

 **************************************************************************

 **************************************************************************

                    xk=(   0.03720,   0.02148,   0.00000  )

     Band symmetry, C_s (m)     point group:

     e(  1 -  1) =    -58.09591  eV     1   --> A'             
     e(  2 -  2) =    -32.21814  eV     1   --> A''            
     e(  3 -  3) =    -32.02644  eV     1   --> A'             
     e(  4 -  4) =    -32.02238  eV     1   --> A'             
     e(  5 -  5) =    -11.21174  eV     1   --> A'             
     e(  6 -  6) =     -9.94422  eV     1   --> A''            
     e(  7 -  7) =     -2.74112  eV     1   --> A'             
     e(  8 -  8) =      0.17969  eV     1   --> A'             
     e(  9 -  9) =      0.25064  eV     1   --> A'             
     e( 10 - 10) =      0.90383  eV     1   --> A''            
     e( 11 - 11) =      1.29865  eV     1   --> A''            
     e( 12 - 12) =      1.46166  eV     1   --> A''            
     e( 13 - 13) =      2.79256  eV     1   --> A'             
     e( 14 - 14) =      5.53484  eV     1   --> A''            
     e( 15 - 15) =      5.60680  eV     1   --> A''            
     e( 16 - 16) =      5.72228  eV     1   --> A'             
     e( 17 - 17) =      5.76363  eV     1   --> A'             
     e( 18 - 18) =      7.93857  eV     1   --> A'             
     e( 19 - 19) =      9.29161  eV     1   --> A'             
     e( 20 - 20) =      9.68539  eV     1   --> A''            
     e( 21 - 21) =     11.87020  eV     1   --> A''            
     e( 22 - 22) =     12.45062  eV     1   --> A'             
     e( 23 - 23) =     13.58560  eV     1   --> A'             
     e( 24 - 24) =     13.70108  eV     1   --> A'             
     e( 25 - 25) =     15.45511  eV     1   --> A''            
     e( 26 - 26) =     15.58818  eV     1   --> A'             
     e( 27 - 27) =     15.64740  eV     1   --> A''            
     e( 28 - 28) =     17.14213  eV     1   --> A''            
     e( 29 - 29) =     18.76858  eV     1   --> A''            
     e( 30 - 30) =     18.81695  eV     1   --> A'             

 **************************************************************************

 **************************************************************************

                    xk=(   0.02480,   0.01432,   0.00000  )

     Band symmetry, C_s (m)     point group:

     e(  1 -  1) =    -58.09619  eV     1   --> A'             
     e(  2 -  2) =    -32.21870  eV     1   --> A''            
     e(  3 -  3) =    -32.02362  eV     1   --> A'             
     e(  4 -  4) =    -32.02174  eV     1   --> A'             
     e(  5 -  5) =    -11.22320  eV     1   --> A'             
     e(  6 -  6) =     -9.94903  eV     1   --> A''            
     e(  7 -  7) =     -2.75454  eV     1   --> A'             
     e(  8 -  8) =      0.20647  eV     1   --> A'             
     e(  9 -  9) =      0.23852  eV     1   --> A'             
     e( 10 - 10) =      0.97923  eV     1   --> A''            
     e( 11 - 11) =      1.31776  eV     1   --> A''            
     e( 12 - 12) =      1.40328  eV     1   --> A''            
     e( 13 - 13) =      2.79775  eV     1   --> A'             
     e( 14 - 14) =      5.55361  eV     1   --> A''            
     e( 15 - 15) =      5.58621  eV     1   --> A''            
     e( 16 - 16) =      5.75745  eV     1   --> A'             
     e( 17 - 17) =      5.77682  eV     1   --> A'             
     e( 18 - 18) =      7.91537  eV     1   --> A'             
     e( 19 - 19) =      9.23911  eV     1   --> A'             
     e( 20 - 20) =      9.67132  eV     1   --> A''            
     e( 21 - 21) =     11.81370  eV     1   --> A''            
     e( 22 - 22) =     12.44511  eV     1   --> A'             
     e( 23 - 23) =     13.61193  eV     1   --> A'             
     e( 24 - 24) =     13.66449  eV     1   --> A'             
     e( 25 - 25) =     15.55233  eV     1   --> A''            
     e( 26 - 26) =     15.59307  eV     1   --> A'             
     e( 27 - 27) =     15.64156  eV     1   --> A''            
     e( 28 - 28) =     17.14080  eV     1   --> A''            
     e( 29 - 29) =     18.85107  eV     1   --> A''            
     e( 30 - 30) =     18.88458  eV     1   --> A'             

 **************************************************************************

 **************************************************************************

                    xk=(   0.01240,   0.00716,   0.00000  )

     Band symmetry, C_s (m)     point group:

     e(  1 -  1) =    -58.09635  eV     1   --> A'             
     e(  2 -  2) =    -32.21903  eV     1   --> A''            
     e(  3 -  3) =    -32.02192  eV     1   --> A'             
     e(  4 -  4) =    -32.02135  eV     1   --> A'             
     e(  5 -  5) =    -11.23009  eV     1   --> A'             
     e(  6 -  6) =     -9.95192  eV     1   --> A''            
     e(  7 -  7) =     -2.76263  eV     1   --> A'             
     e(  8 -  8) =      0.22272  eV     1   --> A'             
     e(  9 -  9) =      0.23124  eV     1   --> A'             
     e( 10 - 10) =      1.03859  eV     1   --> A''            
     e( 11 - 11) =      1.32936  eV     1   --> A''            
     e( 12 - 12) =      1.35402  eV     1   --> A''            
     e( 13 - 13) =      2.80077  eV     1   --> A'             
     e( 14 - 14) =      5.56549  eV     1   --> A''            
     e( 15 - 15) =      5.57369  eV     1   --> A''            
     e( 16 - 16) =      5.77930  eV     1   --> A'             
     e( 17 - 17) =      5.78487  eV     1   --> A'             
     e( 18 - 18) =      7.90097  eV     1   --> A'             
     e( 19 - 19) =      9.20729  eV     1   --> A'             
     e( 20 - 20) =      9.66283  eV     1   --> A''            
     e( 21 - 21) =     11.77920  eV     1   --> A''            
     e( 22 - 22) =     12.44157  eV     1   --> A'             
     e( 23 - 23) =     13.62841  eV     1   --> A'             
     e( 24 - 24) =     13.64246  eV     1   --> A'             
     e( 25 - 25) =     15.59544  eV     1   --> A'             
     e( 26 - 26) =     15.61426  eV     1   --> A''            
     e( 27 - 27) =     15.63819  eV     1   --> A''            
     e( 28 - 28) =     17.13944  eV     1   --> A''            
     e( 29 - 29) =     18.90771  eV     1   --> A''            
     e( 30 - 30) =     18.93272  eV     1   --> A''            

 **************************************************************************

 **************************************************************************

                    xk=(   0.00000,   0.00000,   0.00000  )

     point group C_2v (mm2) 
     there are  4 classes
     the character table:

       E     C2    s_v   s_v' 
A_1    1.00  1.00  1.00  1.00
A_2    1.00  1.00 -1.00 -1.00
B_1    1.00 -1.00  1.00 -1.00
B_2    1.00 -1.00 -1.00  1.00

     the symmetry operations in each class and the name of the first element:

     E        1
                                                                 
     C2       2
                                                                 
     s_v      3
                                                                 
     s_v'     4
                                                                 

     Band symmetry, C_2v (mm2)  point group:

     e(  1 -  1) =    -58.09641  eV     1   --> A_1  D_1  S_1  
     e(  2 -  2) =    -32.21915  eV     1   --> B_2  D_4  S_4  
     e(  3 -  3) =    -32.02140  eV     1   --> B_1  D_3  S_3  
     e(  4 -  4) =    -32.02119  eV     1   --> A_1  D_1  S_1  
     e(  5 -  5) =    -11.23239  eV     1   --> A_1  D_1  S_1  
     e(  6 -  6) =     -9.95289  eV     1   --> B_2  D_4  S_4  
     e(  7 -  7) =     -2.76534  eV     1   --> A_1  D_1  S_1  
     e(  8 -  8) =      0.22792  eV     1   --> B_1  D_3  S_3  
     e(  9 -  9) =      0.22906  eV     1   --> A_1  D_1  S_1  
     e( 10 - 10) =      1.06337  eV     1   --> B_2  D_4  S_4  
     e( 11 - 11) =      1.33218  eV     1   --> A_2  D_2  S_2  
     e( 12 - 12) =      1.33363  eV     1   --> B_2  D_4  S_4  
     e( 13 - 13) =      2.80176  eV     1   --> A_1  D_1  S_1  
     e( 14 - 14) =      5.56945  eV     1   --> B_2  D_4  S_4  
     e( 15 - 15) =      5.56957  eV     1   --> A_2  D_2  S_2  
     e( 16 - 16) =      5.78646  eV     1   --> B_1  D_3  S_3  
     e( 17 - 17) =      5.78783  eV     1   --> A_1  D_1  S_1  
     e( 18 - 18) =      7.89609  eV     1   --> A_1  D_1  S_1  
     e( 19 - 19) =      9.19663  eV     1   --> A_1  D_1  S_1  
     e( 20 - 20) =      9.65999  eV     1   --> B_2  D_4  S_4  
     e( 21 - 21) =     11.76759  eV     1   --> B_2  D_4  S_4  
     e( 22 - 22) =     12.44035  eV     1   --> A_1  D_1  S_1  
     e( 23 - 23) =     13.63362  eV     1   --> B_1  D_3  S_3  
     e( 24 - 24) =     13.63550  eV     1   --> A_1  D_1  S_1  
     e( 25 - 25) =     15.59613  eV     1   --> A_1  D_1  S_1  
     e( 26 - 26) =     15.63495  eV     1   --> A_2  D_2  S_2  
     e( 27 - 27) =     15.63770  eV     1   --> B_2  D_4  S_4  
     e( 28 - 28) =     17.13890  eV     1   --> B_2  D_4  S_4  
     e( 29 - 29) =     18.92871  eV     1   --> A_2  D_2  S_2  
     e( 30 - 30) =     18.92919  eV     1   --> B_2  D_4  S_4  

 **************************************************************************
 
     BANDS        :     20.09s CPU     22.06s WALL

 
   This run was terminated on:  14:33:13  15Nov2021            

=------------------------------------------------------------------------------=
   JOB DONE.
=------------------------------------------------------------------------------=
