
     Program PWSCF v.6.7MaX starts on 10Mar2022 at 10:52: 8 

     This program is part of the open-source Quantum ESPRESSO suite
     for quantum simulation of materials; please cite
         "P. Giannozzi et al., J. Phys.:Condens. Matter 21 395502 (2009);
         "P. Giannozzi et al., J. Phys.:Condens. Matter 29 465901 (2017);
          URL http://www.quantum-espresso.org", 
     in publications or presentations arising from this work. More details at
     http://www.quantum-espresso.org/quote

     Parallel version (MPI), running on    30 processors

     MPI processes distributed on     1 nodes
     R & G space division:  proc/nbgrp/npool/nimage =      30
     Waiting for input...
     Reading input from standard input
Warning: card &IONS ignored
Warning: card    !(DEFAULT)  USE BFGS QUASI-NEWTON ALGORITHM ignored
Warning: card / ignored

     Current dimensions of program PWSCF are:
     Max number of different atomic species (ntypx) = 10
     Max number of k-points (npk) =  40000
     Max angular momentum in pseudopotentials (lmaxx) =  3

     Atomic positions and unit cell read from directory:
     ./6AGNR.save/
     Atomic positions from file used, from input discarded
 
     file C.pbe-rrkjus.UPF: wavefunction(s)  2S 2P renormalized
     file H.pbe-rrkjus.UPF: wavefunction(s)  1S renormalized
     Message from routine set_cutoff:
     ecutrho < 4*ecutwfc, are you sure?

     Subspace diagonalization in iterative solution of the eigenvalue problem:
     one sub-group per band group will be used
     scalapack distributed-memory algorithm (size of sub-group:  5*  5 procs)

 
     Parallelization info
     --------------------
     sticks:   dense  smooth     PW     G-vecs:    dense   smooth      PW
     Min         185     185     66                18305    18305    3968
     Max         186     186     67                18310    18310    3977
     Sum        5565    5565   1999               549225   549225  119167
 


     bravais-lattice index     =            8
     lattice parameter (alat)  =       8.1351  a.u.
     unit-cell volume          =    7331.0274 (a.u.)^3
     number of atoms/cell      =           16
     number of atomic types    =            2
     number of electrons       =        52.00
     number of Kohn-Sham states=           60
     kinetic-energy cutoff     =      90.0000  Ry
     charge density cutoff     =     270.0000  Ry
     Exchange-correlation=  SLA  PW   PBE  PBE
                           (   1   4   3   4   0   0   0)

     celldm(1)=   8.135066  celldm(2)=   3.907754  celldm(3)=   3.484612
     celldm(4)=   0.000000  celldm(5)=   0.000000  celldm(6)=   0.000000

     crystal axes: (cart. coord. in units of alat)
               a(1) = (   1.000000   0.000000   0.000000 )  
               a(2) = (   0.000000   3.907754   0.000000 )  
               a(3) = (   0.000000   0.000000   3.484612 )  

     reciprocal axes: (cart. coord. in units 2 pi/alat)
               b(1) = (  1.000000  0.000000  0.000000 )  
               b(2) = (  0.000000  0.255901  0.000000 )  
               b(3) = (  0.000000  0.000000  0.286976 )  


     PseudoPot. # 1 for C  read from file:
     ../Pseudo/C.pbe-rrkjus.UPF
     MD5 check sum: 00fb224312de0c5b6853bd333518df6f
     Pseudo is Ultrasoft, Zval =  4.0
     Generated by new atomic code, or converted to UPF format
     Using radial grid of  627 points,  4 beta functions with: 
                l(1) =   0
                l(2) =   0
                l(3) =   1
                l(4) =   1
     Q(r) pseudized with 0 coefficients 


     PseudoPot. # 2 for H  read from file:
     ../Pseudo/H.pbe-rrkjus.UPF
     MD5 check sum: 7cc9d459525c9a0585f487a71c3c9563
     Pseudo is Ultrasoft, Zval =  1.0
     Generated by new atomic code, or converted to UPF format
     Using radial grid of 1061 points,  2 beta functions with: 
                l(1) =   0
                l(2) =   0
     Q(r) pseudized with 0 coefficients 


     atomic species   valence    mass     pseudopotential
        C              4.00    12.01070     C ( 1.00)
        H              1.00     1.00794     H ( 1.00)

      8 Sym. Ops., with inversion, found ( 4 have fractional translation)


                                    s                        frac. trans.

      isym =  1     identity                                     

 cryst.   s( 1) = (     1          0          0      )
                  (     0          1          0      )
                  (     0          0          1      )

 cart.    s( 1) = (  1.0000000  0.0000000  0.0000000 )
                  (  0.0000000  1.0000000  0.0000000 )
                  (  0.0000000  0.0000000  1.0000000 )


      isym =  2     180 deg rotation - cart. axis [0,0,1]        

 cryst.   s( 2) = (    -1          0          0      )    f =(  0.5000000 )
                  (     0         -1          0      )       (  0.0000000 )
                  (     0          0          1      )       (  0.0000000 )

 cart.    s( 2) = ( -1.0000000  0.0000000  0.0000000 )    f =(  0.5000000 )
                  (  0.0000000 -1.0000000  0.0000000 )       (  0.0000000 )
                  (  0.0000000  0.0000000  1.0000000 )       (  0.0000000 )


      isym =  3     180 deg rotation - cart. axis [0,1,0]        

 cryst.   s( 3) = (    -1          0          0      )
                  (     0          1          0      )
                  (     0          0         -1      )

 cart.    s( 3) = ( -1.0000000  0.0000000  0.0000000 )
                  (  0.0000000  1.0000000  0.0000000 )
                  (  0.0000000  0.0000000 -1.0000000 )


      isym =  4     180 deg rotation - cart. axis [1,0,0]        

 cryst.   s( 4) = (     1          0          0      )    f =( -0.5000000 )
                  (     0         -1          0      )       (  0.0000000 )
                  (     0          0         -1      )       (  0.0000000 )

 cart.    s( 4) = (  1.0000000  0.0000000  0.0000000 )    f =( -0.5000000 )
                  (  0.0000000 -1.0000000  0.0000000 )       (  0.0000000 )
                  (  0.0000000  0.0000000 -1.0000000 )       (  0.0000000 )


      isym =  5     inversion                                    

 cryst.   s( 5) = (    -1          0          0      )    f =(  0.5000000 )
                  (     0         -1          0      )       (  0.0000000 )
                  (     0          0         -1      )       (  0.0000000 )

 cart.    s( 5) = ( -1.0000000  0.0000000  0.0000000 )    f =(  0.5000000 )
                  (  0.0000000 -1.0000000  0.0000000 )       (  0.0000000 )
                  (  0.0000000  0.0000000 -1.0000000 )       (  0.0000000 )


      isym =  6     inv. 180 deg rotation - cart. axis [0,0,1]   

 cryst.   s( 6) = (     1          0          0      )
                  (     0          1          0      )
                  (     0          0         -1      )

 cart.    s( 6) = (  1.0000000  0.0000000  0.0000000 )
                  (  0.0000000  1.0000000  0.0000000 )
                  (  0.0000000  0.0000000 -1.0000000 )


      isym =  7     inv. 180 deg rotation - cart. axis [0,1,0]   

 cryst.   s( 7) = (     1          0          0      )    f =( -0.5000000 )
                  (     0         -1          0      )       (  0.0000000 )
                  (     0          0          1      )       (  0.0000000 )

 cart.    s( 7) = (  1.0000000  0.0000000  0.0000000 )    f =( -0.5000000 )
                  (  0.0000000 -1.0000000  0.0000000 )       (  0.0000000 )
                  (  0.0000000  0.0000000  1.0000000 )       (  0.0000000 )


      isym =  8     inv. 180 deg rotation - cart. axis [1,0,0]   

 cryst.   s( 8) = (    -1          0          0      )
                  (     0          1          0      )
                  (     0          0          1      )

 cart.    s( 8) = ( -1.0000000  0.0000000  0.0000000 )
                  (  0.0000000  1.0000000  0.0000000 )
                  (  0.0000000  0.0000000  1.0000000 )


     point group D_2h (mmm) 
     there are  8 classes
     the character table:

       E     C2    C2'   C2''  i     s_v   s_v'  s_v''
A_g    1.00  1.00  1.00  1.00  1.00  1.00  1.00  1.00
B_1g   1.00  1.00 -1.00 -1.00  1.00  1.00 -1.00 -1.00
B_2g   1.00 -1.00  1.00 -1.00  1.00 -1.00  1.00 -1.00
B_3g   1.00 -1.00 -1.00  1.00  1.00 -1.00 -1.00  1.00
A_u    1.00  1.00  1.00  1.00 -1.00 -1.00 -1.00 -1.00
B_1u   1.00  1.00 -1.00 -1.00 -1.00 -1.00  1.00  1.00
B_2u   1.00 -1.00  1.00 -1.00 -1.00  1.00 -1.00  1.00
B_3u   1.00 -1.00 -1.00  1.00 -1.00  1.00  1.00 -1.00

     the symmetry operations in each class and the name of the first element:

     E        1
          identity                                               
     C2       2
          180 deg rotation - cart. axis [0,0,1]                  
     C2'      4
          180 deg rotation - cart. axis [1,0,0]                  
     C2''     3
          180 deg rotation - cart. axis [0,1,0]                  
     i        5
          inversion                                              
     s_v      6
          inv. 180 deg rotation - cart. axis [0,0,1]             
     s_v'     8
          inv. 180 deg rotation - cart. axis [1,0,0]             
     s_v''    7
          inv. 180 deg rotation - cart. axis [0,1,0]             

   Cartesian axes

     site n.     atom                  positions (alat units)
         1           C   tau(   1) = (   0.6595826   1.2470267   1.7423060  )
         2           C   tau(   2) = (   0.8316583   1.5250783   1.7423060  )
         3           C   tau(   3) = (   0.3404174   1.2470267   1.7423060  )
         4           C   tau(   4) = (   0.6663068   1.8098538   1.7423060  )
         5           C   tau(   5) = (   0.8336932   2.0979003   1.7423060  )
         6           C   tau(   6) = (   0.1683417   1.5250783   1.7423060  )
         7           C   tau(   7) = (   0.3336932   1.8098538   1.7423060  )
         8           C   tau(   8) = (   0.6683417   2.3826757   1.7423060  )
         9           C   tau(   9) = (   0.8404174   2.6607274   1.7423060  )
        10           C   tau(  10) = (   0.1663068   2.0979003   1.7423060  )
        11           C   tau(  11) = (   0.3316583   2.3826757   1.7423060  )
        12           C   tau(  12) = (   0.1595826   2.6607274   1.7423060  )
        13           H   tau(  13) = (   0.7787232   1.0244895   1.7423060  )
        14           H   tau(  14) = (   0.2212768   1.0244895   1.7423060  )
        15           H   tau(  15) = (   0.7212768   2.8832645   1.7423060  )
        16           H   tau(  16) = (   0.2787232   2.8832645   1.7423060  )

   Crystallographic axes

     site n.     atom                  positions (cryst. coord.)
         1           C   tau(   1) = (  0.6595826  0.3191160  0.5000000  )
         2           C   tau(   2) = (  0.8316583  0.3902698  0.5000000  )
         3           C   tau(   3) = (  0.3404174  0.3191160  0.5000000  )
         4           C   tau(   4) = (  0.6663068  0.4631442  0.5000000  )
         5           C   tau(   5) = (  0.8336932  0.5368558  0.5000000  )
         6           C   tau(   6) = (  0.1683417  0.3902698  0.5000000  )
         7           C   tau(   7) = (  0.3336932  0.4631442  0.5000000  )
         8           C   tau(   8) = (  0.6683417  0.6097302  0.5000000  )
         9           C   tau(   9) = (  0.8404174  0.6808840  0.5000000  )
        10           C   tau(  10) = (  0.1663068  0.5368558  0.5000000  )
        11           C   tau(  11) = (  0.3316583  0.6097302  0.5000000  )
        12           C   tau(  12) = (  0.1595826  0.6808840  0.5000000  )
        13           H   tau(  13) = (  0.7787232  0.2621684  0.5000000  )
        14           H   tau(  14) = (  0.2212768  0.2621684  0.5000000  )
        15           H   tau(  15) = (  0.7212768  0.7378316  0.5000000  )
        16           H   tau(  16) = (  0.2787232  0.7378316  0.5000000  )

     number of k points=   101
                       cart. coord. in units 2pi/alat
        k(    1) = (   0.0000000   0.0000000   0.0000000), wk =   0.0198020
        k(    2) = (   0.0050000   0.0000000   0.0000000), wk =   0.0198020
        k(    3) = (   0.0100000   0.0000000   0.0000000), wk =   0.0198020
        k(    4) = (   0.0150000   0.0000000   0.0000000), wk =   0.0198020
        k(    5) = (   0.0200000   0.0000000   0.0000000), wk =   0.0198020
        k(    6) = (   0.0250000   0.0000000   0.0000000), wk =   0.0198020
        k(    7) = (   0.0300000   0.0000000   0.0000000), wk =   0.0198020
        k(    8) = (   0.0350000   0.0000000   0.0000000), wk =   0.0198020
        k(    9) = (   0.0400000   0.0000000   0.0000000), wk =   0.0198020
        k(   10) = (   0.0450000   0.0000000   0.0000000), wk =   0.0198020
        k(   11) = (   0.0500000   0.0000000   0.0000000), wk =   0.0198020
        k(   12) = (   0.0550000   0.0000000   0.0000000), wk =   0.0198020
        k(   13) = (   0.0600000   0.0000000   0.0000000), wk =   0.0198020
        k(   14) = (   0.0650000   0.0000000   0.0000000), wk =   0.0198020
        k(   15) = (   0.0700000   0.0000000   0.0000000), wk =   0.0198020
        k(   16) = (   0.0750000   0.0000000   0.0000000), wk =   0.0198020
        k(   17) = (   0.0800000   0.0000000   0.0000000), wk =   0.0198020
        k(   18) = (   0.0850000   0.0000000   0.0000000), wk =   0.0198020
        k(   19) = (   0.0900000   0.0000000   0.0000000), wk =   0.0198020
        k(   20) = (   0.0950000   0.0000000   0.0000000), wk =   0.0198020
        k(   21) = (   0.1000000   0.0000000   0.0000000), wk =   0.0198020
        k(   22) = (   0.1050000   0.0000000   0.0000000), wk =   0.0198020
        k(   23) = (   0.1100000   0.0000000   0.0000000), wk =   0.0198020
        k(   24) = (   0.1150000   0.0000000   0.0000000), wk =   0.0198020
        k(   25) = (   0.1200000   0.0000000   0.0000000), wk =   0.0198020
        k(   26) = (   0.1250000   0.0000000   0.0000000), wk =   0.0198020
        k(   27) = (   0.1300000   0.0000000   0.0000000), wk =   0.0198020
        k(   28) = (   0.1350000   0.0000000   0.0000000), wk =   0.0198020
        k(   29) = (   0.1400000   0.0000000   0.0000000), wk =   0.0198020
        k(   30) = (   0.1450000   0.0000000   0.0000000), wk =   0.0198020
        k(   31) = (   0.1500000   0.0000000   0.0000000), wk =   0.0198020
        k(   32) = (   0.1550000   0.0000000   0.0000000), wk =   0.0198020
        k(   33) = (   0.1600000   0.0000000   0.0000000), wk =   0.0198020
        k(   34) = (   0.1650000   0.0000000   0.0000000), wk =   0.0198020
        k(   35) = (   0.1700000   0.0000000   0.0000000), wk =   0.0198020
        k(   36) = (   0.1750000   0.0000000   0.0000000), wk =   0.0198020
        k(   37) = (   0.1800000   0.0000000   0.0000000), wk =   0.0198020
        k(   38) = (   0.1850000   0.0000000   0.0000000), wk =   0.0198020
        k(   39) = (   0.1900000   0.0000000   0.0000000), wk =   0.0198020
        k(   40) = (   0.1950000   0.0000000   0.0000000), wk =   0.0198020
        k(   41) = (   0.2000000   0.0000000   0.0000000), wk =   0.0198020
        k(   42) = (   0.2050000   0.0000000   0.0000000), wk =   0.0198020
        k(   43) = (   0.2100000   0.0000000   0.0000000), wk =   0.0198020
        k(   44) = (   0.2150000   0.0000000   0.0000000), wk =   0.0198020
        k(   45) = (   0.2200000   0.0000000   0.0000000), wk =   0.0198020
        k(   46) = (   0.2250000   0.0000000   0.0000000), wk =   0.0198020
        k(   47) = (   0.2300000   0.0000000   0.0000000), wk =   0.0198020
        k(   48) = (   0.2350000   0.0000000   0.0000000), wk =   0.0198020
        k(   49) = (   0.2400000   0.0000000   0.0000000), wk =   0.0198020
        k(   50) = (   0.2450000   0.0000000   0.0000000), wk =   0.0198020
        k(   51) = (   0.2500000   0.0000000   0.0000000), wk =   0.0198020
        k(   52) = (   0.2550000   0.0000000   0.0000000), wk =   0.0198020
        k(   53) = (   0.2600000   0.0000000   0.0000000), wk =   0.0198020
        k(   54) = (   0.2650000   0.0000000   0.0000000), wk =   0.0198020
        k(   55) = (   0.2700000   0.0000000   0.0000000), wk =   0.0198020
        k(   56) = (   0.2750000   0.0000000   0.0000000), wk =   0.0198020
        k(   57) = (   0.2800000   0.0000000   0.0000000), wk =   0.0198020
        k(   58) = (   0.2850000   0.0000000   0.0000000), wk =   0.0198020
        k(   59) = (   0.2900000   0.0000000   0.0000000), wk =   0.0198020
        k(   60) = (   0.2950000   0.0000000   0.0000000), wk =   0.0198020
        k(   61) = (   0.3000000   0.0000000   0.0000000), wk =   0.0198020
        k(   62) = (   0.3050000   0.0000000   0.0000000), wk =   0.0198020
        k(   63) = (   0.3100000   0.0000000   0.0000000), wk =   0.0198020
        k(   64) = (   0.3150000   0.0000000   0.0000000), wk =   0.0198020
        k(   65) = (   0.3200000   0.0000000   0.0000000), wk =   0.0198020
        k(   66) = (   0.3250000   0.0000000   0.0000000), wk =   0.0198020
        k(   67) = (   0.3300000   0.0000000   0.0000000), wk =   0.0198020
        k(   68) = (   0.3350000   0.0000000   0.0000000), wk =   0.0198020
        k(   69) = (   0.3400000   0.0000000   0.0000000), wk =   0.0198020
        k(   70) = (   0.3450000   0.0000000   0.0000000), wk =   0.0198020
        k(   71) = (   0.3500000   0.0000000   0.0000000), wk =   0.0198020
        k(   72) = (   0.3550000   0.0000000   0.0000000), wk =   0.0198020
        k(   73) = (   0.3600000   0.0000000   0.0000000), wk =   0.0198020
        k(   74) = (   0.3650000   0.0000000   0.0000000), wk =   0.0198020
        k(   75) = (   0.3700000   0.0000000   0.0000000), wk =   0.0198020
        k(   76) = (   0.3750000   0.0000000   0.0000000), wk =   0.0198020
        k(   77) = (   0.3800000   0.0000000   0.0000000), wk =   0.0198020
        k(   78) = (   0.3850000   0.0000000   0.0000000), wk =   0.0198020
        k(   79) = (   0.3900000   0.0000000   0.0000000), wk =   0.0198020
        k(   80) = (   0.3950000   0.0000000   0.0000000), wk =   0.0198020
        k(   81) = (   0.4000000   0.0000000   0.0000000), wk =   0.0198020
        k(   82) = (   0.4050000   0.0000000   0.0000000), wk =   0.0198020
        k(   83) = (   0.4100000   0.0000000   0.0000000), wk =   0.0198020
        k(   84) = (   0.4150000   0.0000000   0.0000000), wk =   0.0198020
        k(   85) = (   0.4200000   0.0000000   0.0000000), wk =   0.0198020
        k(   86) = (   0.4250000   0.0000000   0.0000000), wk =   0.0198020
        k(   87) = (   0.4300000   0.0000000   0.0000000), wk =   0.0198020
        k(   88) = (   0.4350000   0.0000000   0.0000000), wk =   0.0198020
        k(   89) = (   0.4400000   0.0000000   0.0000000), wk =   0.0198020
        k(   90) = (   0.4450000   0.0000000   0.0000000), wk =   0.0198020
        k(   91) = (   0.4500000   0.0000000   0.0000000), wk =   0.0198020
        k(   92) = (   0.4550000   0.0000000   0.0000000), wk =   0.0198020
        k(   93) = (   0.4600000   0.0000000   0.0000000), wk =   0.0198020
        k(   94) = (   0.4650000   0.0000000   0.0000000), wk =   0.0198020
        k(   95) = (   0.4700000   0.0000000   0.0000000), wk =   0.0198020
        k(   96) = (   0.4750000   0.0000000   0.0000000), wk =   0.0198020
        k(   97) = (   0.4800000   0.0000000   0.0000000), wk =   0.0198020
        k(   98) = (   0.4850000   0.0000000   0.0000000), wk =   0.0198020
        k(   99) = (   0.4900000   0.0000000   0.0000000), wk =   0.0198020
        k(  100) = (   0.4950000   0.0000000   0.0000000), wk =   0.0198020
        k(  101) = (   0.5000000   0.0000000   0.0000000), wk =   0.0198020

                       cryst. coord.
        k(    1) = (   0.0000000   0.0000000   0.0000000), wk =   0.0198020
        k(    2) = (   0.0050000   0.0000000   0.0000000), wk =   0.0198020
        k(    3) = (   0.0100000   0.0000000   0.0000000), wk =   0.0198020
        k(    4) = (   0.0150000   0.0000000   0.0000000), wk =   0.0198020
        k(    5) = (   0.0200000   0.0000000   0.0000000), wk =   0.0198020
        k(    6) = (   0.0250000   0.0000000   0.0000000), wk =   0.0198020
        k(    7) = (   0.0300000   0.0000000   0.0000000), wk =   0.0198020
        k(    8) = (   0.0350000   0.0000000   0.0000000), wk =   0.0198020
        k(    9) = (   0.0400000   0.0000000   0.0000000), wk =   0.0198020
        k(   10) = (   0.0450000   0.0000000   0.0000000), wk =   0.0198020
        k(   11) = (   0.0500000   0.0000000   0.0000000), wk =   0.0198020
        k(   12) = (   0.0550000   0.0000000   0.0000000), wk =   0.0198020
        k(   13) = (   0.0600000   0.0000000   0.0000000), wk =   0.0198020
        k(   14) = (   0.0650000   0.0000000   0.0000000), wk =   0.0198020
        k(   15) = (   0.0700000   0.0000000   0.0000000), wk =   0.0198020
        k(   16) = (   0.0750000   0.0000000   0.0000000), wk =   0.0198020
        k(   17) = (   0.0800000   0.0000000   0.0000000), wk =   0.0198020
        k(   18) = (   0.0850000   0.0000000   0.0000000), wk =   0.0198020
        k(   19) = (   0.0900000   0.0000000   0.0000000), wk =   0.0198020
        k(   20) = (   0.0950000   0.0000000   0.0000000), wk =   0.0198020
        k(   21) = (   0.1000000   0.0000000   0.0000000), wk =   0.0198020
        k(   22) = (   0.1050000   0.0000000   0.0000000), wk =   0.0198020
        k(   23) = (   0.1100000   0.0000000   0.0000000), wk =   0.0198020
        k(   24) = (   0.1150000   0.0000000   0.0000000), wk =   0.0198020
        k(   25) = (   0.1200000   0.0000000   0.0000000), wk =   0.0198020
        k(   26) = (   0.1250000   0.0000000   0.0000000), wk =   0.0198020
        k(   27) = (   0.1300000   0.0000000   0.0000000), wk =   0.0198020
        k(   28) = (   0.1350000   0.0000000   0.0000000), wk =   0.0198020
        k(   29) = (   0.1400000   0.0000000   0.0000000), wk =   0.0198020
        k(   30) = (   0.1450000   0.0000000   0.0000000), wk =   0.0198020
        k(   31) = (   0.1500000   0.0000000   0.0000000), wk =   0.0198020
        k(   32) = (   0.1550000   0.0000000   0.0000000), wk =   0.0198020
        k(   33) = (   0.1600000   0.0000000   0.0000000), wk =   0.0198020
        k(   34) = (   0.1650000   0.0000000   0.0000000), wk =   0.0198020
        k(   35) = (   0.1700000   0.0000000   0.0000000), wk =   0.0198020
        k(   36) = (   0.1750000   0.0000000   0.0000000), wk =   0.0198020
        k(   37) = (   0.1800000   0.0000000   0.0000000), wk =   0.0198020
        k(   38) = (   0.1850000   0.0000000   0.0000000), wk =   0.0198020
        k(   39) = (   0.1900000   0.0000000   0.0000000), wk =   0.0198020
        k(   40) = (   0.1950000   0.0000000   0.0000000), wk =   0.0198020
        k(   41) = (   0.2000000   0.0000000   0.0000000), wk =   0.0198020
        k(   42) = (   0.2050000   0.0000000   0.0000000), wk =   0.0198020
        k(   43) = (   0.2100000   0.0000000   0.0000000), wk =   0.0198020
        k(   44) = (   0.2150000   0.0000000   0.0000000), wk =   0.0198020
        k(   45) = (   0.2200000   0.0000000   0.0000000), wk =   0.0198020
        k(   46) = (   0.2250000   0.0000000   0.0000000), wk =   0.0198020
        k(   47) = (   0.2300000   0.0000000   0.0000000), wk =   0.0198020
        k(   48) = (   0.2350000   0.0000000   0.0000000), wk =   0.0198020
        k(   49) = (   0.2400000   0.0000000   0.0000000), wk =   0.0198020
        k(   50) = (   0.2450000   0.0000000   0.0000000), wk =   0.0198020
        k(   51) = (   0.2500000   0.0000000   0.0000000), wk =   0.0198020
        k(   52) = (   0.2550000   0.0000000   0.0000000), wk =   0.0198020
        k(   53) = (   0.2600000   0.0000000   0.0000000), wk =   0.0198020
        k(   54) = (   0.2650000   0.0000000   0.0000000), wk =   0.0198020
        k(   55) = (   0.2700000   0.0000000   0.0000000), wk =   0.0198020
        k(   56) = (   0.2750000   0.0000000   0.0000000), wk =   0.0198020
        k(   57) = (   0.2800000   0.0000000   0.0000000), wk =   0.0198020
        k(   58) = (   0.2850000   0.0000000   0.0000000), wk =   0.0198020
        k(   59) = (   0.2900000   0.0000000   0.0000000), wk =   0.0198020
        k(   60) = (   0.2950000   0.0000000   0.0000000), wk =   0.0198020
        k(   61) = (   0.3000000   0.0000000   0.0000000), wk =   0.0198020
        k(   62) = (   0.3050000   0.0000000   0.0000000), wk =   0.0198020
        k(   63) = (   0.3100000   0.0000000   0.0000000), wk =   0.0198020
        k(   64) = (   0.3150000   0.0000000   0.0000000), wk =   0.0198020
        k(   65) = (   0.3200000   0.0000000   0.0000000), wk =   0.0198020
        k(   66) = (   0.3250000   0.0000000   0.0000000), wk =   0.0198020
        k(   67) = (   0.3300000   0.0000000   0.0000000), wk =   0.0198020
        k(   68) = (   0.3350000   0.0000000   0.0000000), wk =   0.0198020
        k(   69) = (   0.3400000   0.0000000   0.0000000), wk =   0.0198020
        k(   70) = (   0.3450000   0.0000000   0.0000000), wk =   0.0198020
        k(   71) = (   0.3500000   0.0000000   0.0000000), wk =   0.0198020
        k(   72) = (   0.3550000   0.0000000   0.0000000), wk =   0.0198020
        k(   73) = (   0.3600000   0.0000000   0.0000000), wk =   0.0198020
        k(   74) = (   0.3650000   0.0000000   0.0000000), wk =   0.0198020
        k(   75) = (   0.3700000   0.0000000   0.0000000), wk =   0.0198020
        k(   76) = (   0.3750000   0.0000000   0.0000000), wk =   0.0198020
        k(   77) = (   0.3800000   0.0000000   0.0000000), wk =   0.0198020
        k(   78) = (   0.3850000   0.0000000   0.0000000), wk =   0.0198020
        k(   79) = (   0.3900000   0.0000000   0.0000000), wk =   0.0198020
        k(   80) = (   0.3950000   0.0000000   0.0000000), wk =   0.0198020
        k(   81) = (   0.4000000   0.0000000   0.0000000), wk =   0.0198020
        k(   82) = (   0.4050000   0.0000000   0.0000000), wk =   0.0198020
        k(   83) = (   0.4100000   0.0000000   0.0000000), wk =   0.0198020
        k(   84) = (   0.4150000   0.0000000   0.0000000), wk =   0.0198020
        k(   85) = (   0.4200000   0.0000000   0.0000000), wk =   0.0198020
        k(   86) = (   0.4250000   0.0000000   0.0000000), wk =   0.0198020
        k(   87) = (   0.4300000   0.0000000   0.0000000), wk =   0.0198020
        k(   88) = (   0.4350000   0.0000000   0.0000000), wk =   0.0198020
        k(   89) = (   0.4400000   0.0000000   0.0000000), wk =   0.0198020
        k(   90) = (   0.4450000   0.0000000   0.0000000), wk =   0.0198020
        k(   91) = (   0.4500000   0.0000000   0.0000000), wk =   0.0198020
        k(   92) = (   0.4550000   0.0000000   0.0000000), wk =   0.0198020
        k(   93) = (   0.4600000   0.0000000   0.0000000), wk =   0.0198020
        k(   94) = (   0.4650000   0.0000000   0.0000000), wk =   0.0198020
        k(   95) = (   0.4700000   0.0000000   0.0000000), wk =   0.0198020
        k(   96) = (   0.4750000   0.0000000   0.0000000), wk =   0.0198020
        k(   97) = (   0.4800000   0.0000000   0.0000000), wk =   0.0198020
        k(   98) = (   0.4850000   0.0000000   0.0000000), wk =   0.0198020
        k(   99) = (   0.4900000   0.0000000   0.0000000), wk =   0.0198020
        k(  100) = (   0.4950000   0.0000000   0.0000000), wk =   0.0198020
        k(  101) = (   0.5000000   0.0000000   0.0000000), wk =   0.0198020

     Dense  grid:   549225 G-vectors     FFT dimensions: (  48, 180, 150)

     Dynamical RAM for                 wfc:       3.23 MB

     Dynamical RAM for     wfc (w. buffer):     328.99 MB

     Dynamical RAM for           str. fact:       0.56 MB

     Dynamical RAM for           local pot:       0.00 MB

     Dynamical RAM for          nlocal pot:       5.59 MB

     Dynamical RAM for                qrad:       0.75 MB

     Dynamical RAM for          rho,v,vnew:       1.83 MB

     Dynamical RAM for           G-vectors:       1.19 MB

     Dynamical RAM for          h,s,v(r/c):       0.03 MB

     Dynamical RAM for          <psi|beta>:       0.10 MB

     Dynamical RAM for                 psi:       6.45 MB

     Dynamical RAM for                hpsi:       6.45 MB

     Dynamical RAM for                spsi:       6.45 MB

     Dynamical RAM for      wfcinit/wfcrot:       6.53 MB

     Dynamical RAM for           addusdens:      15.37 MB

     Estimated static dynamical RAM per process >     341.39 MB

     Estimated max dynamical RAM per process >     360.87 MB

     Estimated total dynamical RAM >      10.57 GB

     The potential is recalculated from file :
     ./6AGNR.save/charge-density


     negative rho (up, down):  5.492E-04 0.000E+00
     Starting wfcs are   52 randomized atomic wfcs +    8 random wfcs

     Band Structure Calculation
     Davidson diagonalization with overlap

     Computing kpt #:     1  of   101
     total cpu time spent up to now is       11.7 secs

     Computing kpt #:     2  of   101
     total cpu time spent up to now is       21.5 secs

     Computing kpt #:     3  of   101
     total cpu time spent up to now is       31.4 secs

     Computing kpt #:     4  of   101
     total cpu time spent up to now is       42.5 secs

     Computing kpt #:     5  of   101
     total cpu time spent up to now is       53.4 secs

     Computing kpt #:     6  of   101
     total cpu time spent up to now is       64.3 secs

     Computing kpt #:     7  of   101
     total cpu time spent up to now is       75.3 secs

     Computing kpt #:     8  of   101
     total cpu time spent up to now is       86.0 secs

     Computing kpt #:     9  of   101
     total cpu time spent up to now is       98.1 secs

     Computing kpt #:    10  of   101
     total cpu time spent up to now is      109.9 secs

     Computing kpt #:    11  of   101
     total cpu time spent up to now is      121.0 secs

     Computing kpt #:    12  of   101
     total cpu time spent up to now is      131.8 secs

     Computing kpt #:    13  of   101
     total cpu time spent up to now is      142.9 secs

     Computing kpt #:    14  of   101
     total cpu time spent up to now is      154.0 secs

     Computing kpt #:    15  of   101
     total cpu time spent up to now is      165.6 secs

     Computing kpt #:    16  of   101
     total cpu time spent up to now is      176.6 secs

     Computing kpt #:    17  of   101
     total cpu time spent up to now is      188.5 secs

     Computing kpt #:    18  of   101
     total cpu time spent up to now is      200.3 secs

     Computing kpt #:    19  of   101
     c_bands:  1 eigenvalues not converged
     total cpu time spent up to now is      212.4 secs

     Computing kpt #:    20  of   101
     c_bands:  1 eigenvalues not converged
     total cpu time spent up to now is      224.5 secs

     Computing kpt #:    21  of   101
     total cpu time spent up to now is      236.8 secs

     Computing kpt #:    22  of   101
     total cpu time spent up to now is      247.1 secs

     Computing kpt #:    23  of   101
     total cpu time spent up to now is      257.4 secs

     Computing kpt #:    24  of   101
     total cpu time spent up to now is      267.9 secs

     Computing kpt #:    25  of   101
     total cpu time spent up to now is      278.3 secs

     Computing kpt #:    26  of   101
     total cpu time spent up to now is      288.6 secs

     Computing kpt #:    27  of   101
     total cpu time spent up to now is      299.0 secs

     Computing kpt #:    28  of   101
     total cpu time spent up to now is      309.4 secs

     Computing kpt #:    29  of   101
     total cpu time spent up to now is      320.0 secs

     Computing kpt #:    30  of   101
     total cpu time spent up to now is      330.5 secs

     Computing kpt #:    31  of   101
     total cpu time spent up to now is      341.0 secs

     Computing kpt #:    32  of   101
     total cpu time spent up to now is      352.0 secs

     Computing kpt #:    33  of   101
     total cpu time spent up to now is      363.5 secs

     Computing kpt #:    34  of   101
     total cpu time spent up to now is      374.9 secs

     Computing kpt #:    35  of   101
     total cpu time spent up to now is      386.3 secs

     Computing kpt #:    36  of   101
     total cpu time spent up to now is      397.9 secs

     Computing kpt #:    37  of   101
     total cpu time spent up to now is      409.3 secs

     Computing kpt #:    38  of   101
     total cpu time spent up to now is      420.8 secs

     Computing kpt #:    39  of   101
     total cpu time spent up to now is      432.2 secs

     Computing kpt #:    40  of   101
     total cpu time spent up to now is      443.0 secs

     Computing kpt #:    41  of   101
     total cpu time spent up to now is      454.5 secs

     Computing kpt #:    42  of   101
     c_bands:  1 eigenvalues not converged
     total cpu time spent up to now is      467.0 secs

     Computing kpt #:    43  of   101
     total cpu time spent up to now is      478.5 secs

     Computing kpt #:    44  of   101
     total cpu time spent up to now is      489.0 secs

     Computing kpt #:    45  of   101
     total cpu time spent up to now is      500.1 secs

     Computing kpt #:    46  of   101
     total cpu time spent up to now is      511.3 secs

     Computing kpt #:    47  of   101
     total cpu time spent up to now is      521.9 secs

     Computing kpt #:    48  of   101
     total cpu time spent up to now is      532.5 secs

     Computing kpt #:    49  of   101
     total cpu time spent up to now is      543.3 secs

     Computing kpt #:    50  of   101
     total cpu time spent up to now is      554.6 secs

     Computing kpt #:    51  of   101
     total cpu time spent up to now is      566.2 secs

     Computing kpt #:    52  of   101
     total cpu time spent up to now is      578.5 secs

     Computing kpt #:    53  of   101
     c_bands:  2 eigenvalues not converged
     total cpu time spent up to now is      591.9 secs

     Computing kpt #:    54  of   101
     c_bands:  2 eigenvalues not converged
     total cpu time spent up to now is      605.0 secs

     Computing kpt #:    55  of   101
     total cpu time spent up to now is      617.5 secs

     Computing kpt #:    56  of   101
     c_bands:  2 eigenvalues not converged
     total cpu time spent up to now is      630.6 secs

     Computing kpt #:    57  of   101
     total cpu time spent up to now is      642.1 secs

     Computing kpt #:    58  of   101
     total cpu time spent up to now is      653.2 secs

     Computing kpt #:    59  of   101
     total cpu time spent up to now is      663.8 secs

     Computing kpt #:    60  of   101
     total cpu time spent up to now is      674.6 secs

     Computing kpt #:    61  of   101
     total cpu time spent up to now is      685.4 secs

     Computing kpt #:    62  of   101
     total cpu time spent up to now is      696.6 secs

     Computing kpt #:    63  of   101
     total cpu time spent up to now is      707.1 secs

     Computing kpt #:    64  of   101
     total cpu time spent up to now is      717.9 secs

     Computing kpt #:    65  of   101
     total cpu time spent up to now is      728.7 secs

     Computing kpt #:    66  of   101
     total cpu time spent up to now is      739.4 secs

     Computing kpt #:    67  of   101
     total cpu time spent up to now is      750.1 secs

     Computing kpt #:    68  of   101
     total cpu time spent up to now is      761.0 secs

     Computing kpt #:    69  of   101
     total cpu time spent up to now is      772.0 secs

     Computing kpt #:    70  of   101
     total cpu time spent up to now is      783.1 secs

     Computing kpt #:    71  of   101
     total cpu time spent up to now is      795.1 secs

     Computing kpt #:    72  of   101
     total cpu time spent up to now is      808.0 secs

     Computing kpt #:    73  of   101
     total cpu time spent up to now is      820.7 secs

     Computing kpt #:    74  of   101
     c_bands:  1 eigenvalues not converged
     total cpu time spent up to now is      833.8 secs

     Computing kpt #:    75  of   101
     total cpu time spent up to now is      845.9 secs

     Computing kpt #:    76  of   101
     total cpu time spent up to now is      857.5 secs

     Computing kpt #:    77  of   101
     total cpu time spent up to now is      869.7 secs

     Computing kpt #:    78  of   101
     c_bands:  1 eigenvalues not converged
     total cpu time spent up to now is      882.9 secs

     Computing kpt #:    79  of   101
     c_bands:  1 eigenvalues not converged
     total cpu time spent up to now is      896.1 secs

     Computing kpt #:    80  of   101
     c_bands:  1 eigenvalues not converged
     total cpu time spent up to now is      909.2 secs

     Computing kpt #:    81  of   101
     total cpu time spent up to now is      921.5 secs

     Computing kpt #:    82  of   101
     total cpu time spent up to now is      933.2 secs

     Computing kpt #:    83  of   101
     total cpu time spent up to now is      945.4 secs

     Computing kpt #:    84  of   101
     total cpu time spent up to now is      957.1 secs

     Computing kpt #:    85  of   101
     total cpu time spent up to now is      968.8 secs

     Computing kpt #:    86  of   101
     total cpu time spent up to now is      980.6 secs

     Computing kpt #:    87  of   101
     total cpu time spent up to now is      992.0 secs

     Computing kpt #:    88  of   101
     total cpu time spent up to now is     1004.2 secs

     Computing kpt #:    89  of   101
     total cpu time spent up to now is     1016.9 secs

     Computing kpt #:    90  of   101
     total cpu time spent up to now is     1029.5 secs

     Computing kpt #:    91  of   101
     c_bands:  1 eigenvalues not converged
     total cpu time spent up to now is     1043.0 secs

     Computing kpt #:    92  of   101
     total cpu time spent up to now is     1055.3 secs

     Computing kpt #:    93  of   101
     total cpu time spent up to now is     1068.0 secs

     Computing kpt #:    94  of   101
     total cpu time spent up to now is     1080.9 secs

     Computing kpt #:    95  of   101
     c_bands:  1 eigenvalues not converged
     total cpu time spent up to now is     1094.7 secs

     Computing kpt #:    96  of   101
     c_bands:  1 eigenvalues not converged
     total cpu time spent up to now is     1108.7 secs

     Computing kpt #:    97  of   101
     total cpu time spent up to now is     1121.7 secs

     Computing kpt #:    98  of   101
     c_bands:  1 eigenvalues not converged
     total cpu time spent up to now is     1135.7 secs

     Computing kpt #:    99  of   101
     c_bands:  1 eigenvalues not converged
     total cpu time spent up to now is     1149.8 secs

     Computing kpt #:   100  of   101
     total cpu time spent up to now is     1163.3 secs

     Computing kpt #:   101  of   101
     total cpu time spent up to now is     1176.0 secs

     ethr =  1.92E-11,  avg # of iterations = 90.3

     total cpu time spent up to now is     1176.0 secs

     End of band structure calculation

          k = 0.0000 0.0000 0.0000 (105735 PWs)   bands (ev):

   -21.8082 -20.7208 -18.9420 -16.8843 -16.7568 -15.7776 -15.5950 -15.3045
   -14.0788 -12.9533 -12.2384 -12.0226 -11.2272 -10.2997  -9.8912  -9.7285
    -9.4884  -8.6704  -8.0310  -7.6070  -6.7242  -6.4639  -6.1943  -4.7312
    -4.4236  -3.3858  -2.2722  -1.2581  -1.1056   0.2588   0.5420   0.7837
     1.1674   1.3362   1.5342   1.5636   1.6672   1.8068   1.9417   2.2293
     2.4386   2.9153   2.9292   3.2299   3.2320   3.4169   3.5288   3.5707
     3.9412   3.9624   4.2326   4.5679   4.6761   4.7081   4.9727   5.0490
     5.2274   5.3098   5.4726   5.7314

     occupation numbers 
     1.0000   1.0000   1.0000   1.0000   1.0000   1.0000   1.0000   1.0000
     1.0000   1.0000   1.0000   1.0000   1.0000   1.0000   1.0000   1.0000
     1.0000   1.0000   1.0000   1.0000   1.0000   1.0000   1.0000   1.0000
     1.0000   1.0000   0.0000   0.0000   0.0000   0.0000   0.0000   0.0000
     0.0000   0.0000   0.0000   0.0000   0.0000   0.0000   0.0000   0.0000
     0.0000   0.0000   0.0000   0.0000   0.0000   0.0000   0.0000   0.0000
     0.0000   0.0000   0.0000   0.0000   0.0000   0.0000   0.0000   0.0000
     0.0000   0.0000   0.0000   0.0000

          k = 0.0050 0.0000 0.0000 (105763 PWs)   bands (ev):

   -21.8081 -20.7206 -18.9419 -16.8847 -16.7586 -15.7811 -15.5925 -15.3012
   -14.0797 -12.9529 -12.2373 -12.0234 -11.2271 -10.2990  -9.8911  -9.7290
    -9.4882  -8.6703  -8.0308  -7.6075  -6.7241  -6.4642  -6.1947  -4.7323
    -4.4237  -3.3878  -2.2702  -1.2569  -1.1057   0.2590   0.5422   0.7839
     1.1676   1.3364   1.5344   1.5639   1.6668   1.8070   1.9419   2.2295
     2.4388   2.9155   2.9294   3.2301   3.2322   3.4172   3.5290   3.5709
     3.9414   3.9626   4.2327   4.5680   4.6763   4.7076   4.9727   5.0493
     5.2276   5.3100   5.4728   5.7316

     occupation numbers 
     1.0000   1.0000   1.0000   1.0000   1.0000   1.0000   1.0000   1.0000
     1.0000   1.0000   1.0000   1.0000   1.0000   1.0000   1.0000   1.0000
     1.0000   1.0000   1.0000   1.0000   1.0000   1.0000   1.0000   1.0000
     1.0000   1.0000   0.0000   0.0000   0.0000   0.0000   0.0000   0.0000
     0.0000   0.0000   0.0000   0.0000   0.0000   0.0000   0.0000   0.0000
     0.0000   0.0000   0.0000   0.0000   0.0000   0.0000   0.0000   0.0000
     0.0000   0.0000   0.0000   0.0000   0.0000   0.0000   0.0000   0.0000
     0.0000   0.0000   0.0000   0.0000

          k = 0.0100 0.0000 0.0000 (105751 PWs)   bands (ev):

   -21.8076 -20.7202 -18.9415 -16.8859 -16.7640 -15.7914 -15.5852 -15.2916
   -14.0825 -12.9517 -12.2341 -12.0256 -11.2268 -10.2967  -9.8905  -9.7306
    -9.4877  -8.6698  -8.0300  -7.6088  -6.7237  -6.4650  -6.1956  -4.7353
    -4.4240  -3.3938  -2.2642  -1.2534  -1.1059   0.2596   0.5428   0.7844
     1.1681   1.3370   1.5349   1.5645   1.6655   1.8076   1.9425   2.2301
     2.4394   2.9161   2.9302   3.2307   3.2328   3.4178   3.5296   3.5715
     3.9421   3.9632   4.2333   4.5686   4.6769   4.7061   4.9727   5.0500
     5.2282   5.3107   5.4734   5.7324

     occupation numbers 
     1.0000   1.0000   1.0000   1.0000   1.0000   1.0000   1.0000   1.0000
     1.0000   1.0000   1.0000   1.0000   1.0000   1.0000   1.0000   1.0000
     1.0000   1.0000   1.0000   1.0000   1.0000   1.0000   1.0000   1.0000
     1.0000   1.0000   0.0000   0.0000   0.0000   0.0000   0.0000   0.0000
     0.0000   0.0000   0.0000   0.0000   0.0000   0.0000   0.0000   0.0000
     0.0000   0.0000   0.0000   0.0000   0.0000   0.0000   0.0000   0.0000
     0.0000   0.0000   0.0000   0.0000   0.0000   0.0000   0.0000   0.0000
     0.0000   0.0000   0.0000   0.0000

          k = 0.0150 0.0000 0.0000 (105741 PWs)   bands (ev):

   -21.8069 -20.7195 -18.9409 -16.8882 -16.7724 -15.8076 -15.5732 -15.2764
   -14.0872 -12.9497 -12.2287 -12.0292 -11.2262 -10.2930  -9.8897  -9.7333
    -9.4868  -8.6690  -8.0286  -7.6111  -6.7230  -6.4663  -6.1972  -4.7404
    -4.4244  -3.4036  -2.2544  -1.2475  -1.1064   0.2605   0.5437   0.7854
     1.1691   1.3380   1.5359   1.5656   1.6634   1.8087   1.9435   2.2310
     2.4404   2.9171   2.9315   3.2318   3.2338   3.4188   3.5306   3.5725
     3.9432   3.9642   4.2342   4.5696   4.6778   4.7036   4.9728   5.0511
     5.2292   5.3118   5.4743   5.7335

     occupation numbers 
     1.0000   1.0000   1.0000   1.0000   1.0000   1.0000   1.0000   1.0000
     1.0000   1.0000   1.0000   1.0000   1.0000   1.0000   1.0000   1.0000
     1.0000   1.0000   1.0000   1.0000   1.0000   1.0000   1.0000   1.0000
     1.0000   1.0000   0.0000   0.0000   0.0000   0.0000   0.0000   0.0000
     0.0000   0.0000   0.0000   0.0000   0.0000   0.0000   0.0000   0.0000
     0.0000   0.0000   0.0000   0.0000   0.0000   0.0000   0.0000   0.0000
     0.0000   0.0000   0.0000   0.0000   0.0000   0.0000   0.0000   0.0000
     0.0000   0.0000   0.0000   0.0000

          k = 0.0200 0.0000 0.0000 (105749 PWs)   bands (ev):

   -21.8059 -20.7186 -18.9400 -16.8921 -16.7834 -15.8288 -15.5568 -15.2566
   -14.0937 -12.9469 -12.2213 -12.0342 -11.2254 -10.2879  -9.8885  -9.7370
    -9.4856  -8.6678  -8.0268  -7.6142  -6.7221  -6.4682  -6.1995  -4.7475
    -4.4251  -3.4171  -2.2409  -1.2393  -1.1070   0.2619   0.5451   0.7868
     1.1704   1.3394   1.5373   1.5672   1.6605   1.8101   1.9449   2.2324
     2.4417   2.9184   2.9333   3.2333   3.2352   3.4202   3.5320   3.5739
     3.9447   3.9656   4.2355   4.5710   4.6792   4.7001   4.9729   5.0528
     5.2306   5.3134   5.4756   5.7352

     occupation numbers 
     1.0000   1.0000   1.0000   1.0000   1.0000   1.0000   1.0000   1.0000
     1.0000   1.0000   1.0000   1.0000   1.0000   1.0000   1.0000   1.0000
     1.0000   1.0000   1.0000   1.0000   1.0000   1.0000   1.0000   1.0000
     1.0000   1.0000   0.0000   0.0000   0.0000   0.0000   0.0000   0.0000
     0.0000   0.0000   0.0000   0.0000   0.0000   0.0000   0.0000   0.0000
     0.0000   0.0000   0.0000   0.0000   0.0000   0.0000   0.0000   0.0000
     0.0000   0.0000   0.0000   0.0000   0.0000   0.0000   0.0000   0.0000
     0.0000   0.0000   0.0000   0.0000

          k = 0.0250 0.0000 0.0000 (105751 PWs)   bands (ev):

   -21.8046 -20.7173 -18.9389 -16.8981 -16.7957 -15.8541 -15.5363 -15.2333
   -14.1019 -12.9433 -12.2119 -12.0406 -11.2243 -10.2813  -9.8869  -9.7417
    -9.4841  -8.6663  -8.0244  -7.6182  -6.7210  -6.4706  -6.2024  -4.7565
    -4.4259  -3.4341  -2.2241  -1.2288  -1.1078   0.2636   0.5468   0.7886
     1.1721   1.3412   1.5391   1.5692   1.6568   1.8119   1.9467   2.2342
     2.4434   2.9202   2.9357   3.2352   3.2370   3.4220   3.5339   3.5758
     3.9466   3.9674   4.2372   4.5727   4.6809   4.6956   4.9730   5.0549
     5.2323   5.3153   5.4772   5.7374

     occupation numbers 
     1.0000   1.0000   1.0000   1.0000   1.0000   1.0000   1.0000   1.0000
     1.0000   1.0000   1.0000   1.0000   1.0000   1.0000   1.0000   1.0000
     1.0000   1.0000   1.0000   1.0000   1.0000   1.0000   1.0000   1.0000
     1.0000   1.0000   0.0000   0.0000   0.0000   0.0000   0.0000   0.0000
     0.0000   0.0000   0.0000   0.0000   0.0000   0.0000   0.0000   0.0000
     0.0000   0.0000   0.0000   0.0000   0.0000   0.0000   0.0000   0.0000
     0.0000   0.0000   0.0000   0.0000   0.0000   0.0000   0.0000   0.0000
     0.0000   0.0000   0.0000   0.0000

          k = 0.0300 0.0000 0.0000 (105751 PWs)   bands (ev):

   -21.8030 -20.7158 -18.9375 -16.9075 -16.8081 -15.8825 -15.5119 -15.2071
   -14.1119 -12.9390 -12.2004 -12.0483 -11.2230 -10.2734  -9.8851  -9.7475
    -9.4822  -8.6645  -8.0216  -7.6232  -6.7195  -6.4736  -6.2059  -4.7675
    -4.4269  -3.4541  -2.2041  -1.2160  -1.1088   0.2658   0.5489   0.7907
     1.1742   1.3434   1.5413   1.5717   1.6523   1.8142   1.9489   2.2364
     2.4455   2.9223   2.9385   3.2375   3.2392   3.4243   3.5361   3.5780
     3.9489   3.9696   4.2392   4.5748   4.6831   4.6902   4.9732   5.0575
     5.2344   5.3178   5.4793   5.7400

     occupation numbers 
     1.0000   1.0000   1.0000   1.0000   1.0000   1.0000   1.0000   1.0000
     1.0000   1.0000   1.0000   1.0000   1.0000   1.0000   1.0000   1.0000
     1.0000   1.0000   1.0000   1.0000   1.0000   1.0000   1.0000   1.0000
     1.0000   1.0000   0.0000   0.0000   0.0000   0.0000   0.0000   0.0000
     0.0000   0.0000   0.0000   0.0000   0.0000   0.0000   0.0000   0.0000
     0.0000   0.0000   0.0000   0.0000   0.0000   0.0000   0.0000   0.0000
     0.0000   0.0000   0.0000   0.0000   0.0000   0.0000   0.0000   0.0000
     0.0000   0.0000   0.0000   0.0000

          k = 0.0350 0.0000 0.0000 (105739 PWs)   bands (ev):

   -21.8012 -20.7140 -18.9359 -16.9213 -16.8190 -15.9134 -15.4842 -15.1790
   -14.1235 -12.9338 -12.1871 -12.0572 -11.2215 -10.2642  -9.8828  -9.7542
    -9.4800  -8.6624  -8.0183  -7.6289  -6.7179  -6.4771  -6.2100  -4.7803
    -4.4281  -3.4770  -2.1813  -1.2011  -1.1100   0.2683   0.5514   0.7933
     1.1766   1.3461   1.5438   1.5746   1.6470   1.8169   1.9515   2.2390
     2.4480   2.9249   2.9419   3.2402   3.2418   3.4269   3.5387   3.5806
     3.9517   3.9722   4.2416   4.5773   4.6837   4.6856   4.9735   5.0605
     5.2369   5.3206   5.4817   5.7431

     occupation numbers 
     1.0000   1.0000   1.0000   1.0000   1.0000   1.0000   1.0000   1.0000
     1.0000   1.0000   1.0000   1.0000   1.0000   1.0000   1.0000   1.0000
     1.0000   1.0000   1.0000   1.0000   1.0000   1.0000   1.0000   1.0000
     1.0000   1.0000   0.0000   0.0000   0.0000   0.0000   0.0000   0.0000
     0.0000   0.0000   0.0000   0.0000   0.0000   0.0000   0.0000   0.0000
     0.0000   0.0000   0.0000   0.0000   0.0000   0.0000   0.0000   0.0000
     0.0000   0.0000   0.0000   0.0000   0.0000   0.0000   0.0000   0.0000
     0.0000   0.0000   0.0000   0.0000

          k = 0.0400 0.0000 0.0000 (105735 PWs)   bands (ev):

   -21.7990 -20.7119 -18.9341 -16.9400 -16.8276 -15.9463 -15.4534 -15.1493
   -14.1366 -12.9280 -12.1720 -12.0674 -11.2198 -10.2537  -9.8802  -9.7619
    -9.4774  -8.6600  -8.0146  -7.6356  -6.7159  -6.4811  -6.2148  -4.7950
    -4.4294  -3.5024  -2.1559  -1.1839  -1.1113   0.2712   0.5543   0.7962
     1.1794   1.3491   1.5468   1.5780   1.6409   1.8200   1.9545   2.2419
     2.4509   2.9278   2.9457   3.2433   3.2448   3.4299   3.5417   3.5836
     3.9549   3.9752   4.2444   4.5801   4.6763   4.6885   4.9738   5.0640
     5.2397   5.3239   5.4845   5.7466

     occupation numbers 
     1.0000   1.0000   1.0000   1.0000   1.0000   1.0000   1.0000   1.0000
     1.0000   1.0000   1.0000   1.0000   1.0000   1.0000   1.0000   1.0000
     1.0000   1.0000   1.0000   1.0000   1.0000   1.0000   1.0000   1.0000
     1.0000   1.0000   0.0000   0.0000   0.0000   0.0000   0.0000   0.0000
     0.0000   0.0000   0.0000   0.0000   0.0000   0.0000   0.0000   0.0000
     0.0000   0.0000   0.0000   0.0000   0.0000   0.0000   0.0000   0.0000
     0.0000   0.0000   0.0000   0.0000   0.0000   0.0000   0.0000   0.0000
     0.0000   0.0000   0.0000   0.0000

          k = 0.0450 0.0000 0.0000 (105739 PWs)   bands (ev):

   -21.7966 -20.7096 -18.9320 -16.9635 -16.8336 -15.9807 -15.4199 -15.1186
   -14.1513 -12.9214 -12.1551 -12.0786 -11.2178 -10.2419  -9.8773  -9.7706
    -9.4745  -8.6572  -8.0105  -7.6431  -6.7137  -6.4858  -6.2202  -4.8114
    -4.4310  -3.5301  -2.1283  -1.1647  -1.1127   0.2745   0.5576   0.7996
     1.1826   1.3525   1.5501   1.5818   1.6341   1.8234   1.9579   2.2453
     2.4542   2.9311   2.9501   3.2469   3.2483   3.4334   3.5451   3.5871
     3.9584   3.9786   4.2476   4.5833   4.6679   4.6918   4.9742   5.0680
     5.2428   5.3276   5.4876   5.7506

     occupation numbers 
     1.0000   1.0000   1.0000   1.0000   1.0000   1.0000   1.0000   1.0000
     1.0000   1.0000   1.0000   1.0000   1.0000   1.0000   1.0000   1.0000
     1.0000   1.0000   1.0000   1.0000   1.0000   1.0000   1.0000   1.0000
     1.0000   1.0000   0.0000   0.0000   0.0000   0.0000   0.0000   0.0000
     0.0000   0.0000   0.0000   0.0000   0.0000   0.0000   0.0000   0.0000
     0.0000   0.0000   0.0000   0.0000   0.0000   0.0000   0.0000   0.0000
     0.0000   0.0000   0.0000   0.0000   0.0000   0.0000   0.0000   0.0000
     0.0000   0.0000   0.0000   0.0000

          k = 0.0500 0.0000 0.0000 (105771 PWs)   bands (ev):

   -21.7938 -20.7069 -18.9296 -16.9910 -16.8376 -16.0162 -15.3840 -15.0871
   -14.1673 -12.9141 -12.1366 -12.0908 -11.2155 -10.2291  -9.8741  -9.7801
    -9.4713  -8.6541  -8.0059  -7.6514  -6.7113  -6.4910  -6.2263  -4.8296
    -4.4328  -3.5598  -2.0987  -1.1435  -1.1143   0.2782   0.5612   0.8033
     1.1861   1.3563   1.5539   1.5860   1.6265   1.8273   1.9617   2.2491
     2.4578   2.9348   2.9550   3.2509   3.2521   3.4373   3.5489   3.5909
     3.9624   3.9824   4.2511   4.5868   4.6586   4.6955   4.9746   5.0724
     5.2462   5.3318   5.4911   5.7551

     occupation numbers 
     1.0000   1.0000   1.0000   1.0000   1.0000   1.0000   1.0000   1.0000
     1.0000   1.0000   1.0000   1.0000   1.0000   1.0000   1.0000   1.0000
     1.0000   1.0000   1.0000   1.0000   1.0000   1.0000   1.0000   1.0000
     1.0000   1.0000   0.0000   0.0000   0.0000   0.0000   0.0000   0.0000
     0.0000   0.0000   0.0000   0.0000   0.0000   0.0000   0.0000   0.0000
     0.0000   0.0000   0.0000   0.0000   0.0000   0.0000   0.0000   0.0000
     0.0000   0.0000   0.0000   0.0000   0.0000   0.0000   0.0000   0.0000
     0.0000   0.0000   0.0000   0.0000

          k = 0.0550 0.0000 0.0000 (105753 PWs)   bands (ev):

   -21.7908 -20.7040 -18.9270 -17.0217 -16.8401 -16.0528 -15.3459 -15.0551
   -14.1846 -12.9061 -12.1166 -12.1039 -11.2131 -10.2152  -9.8705  -9.7905
    -9.4677  -8.6506  -8.0011  -7.6606  -6.7086  -6.4968  -6.2329  -4.8493
    -4.4348  -3.5912  -2.0674  -1.1206  -1.1156   0.2822   0.5653   0.8075
     1.1899   1.3605   1.5580   1.5907   1.6182   1.8316   1.9659   2.2532
     2.4619   2.9390   2.9603   3.2553   3.2563   3.4415   3.5531   3.5951
     3.9668   3.9866   4.2550   4.5906   4.6484   4.6995   4.9752   5.0773
     5.2499   5.3364   5.4949   5.7601

     occupation numbers 
     1.0000   1.0000   1.0000   1.0000   1.0000   1.0000   1.0000   1.0000
     1.0000   1.0000   1.0000   1.0000   1.0000   1.0000   1.0000   1.0000
     1.0000   1.0000   1.0000   1.0000   1.0000   1.0000   1.0000   1.0000
     1.0000   1.0000   0.0000   0.0000   0.0000   0.0000   0.0000   0.0000
     0.0000   0.0000   0.0000   0.0000   0.0000   0.0000   0.0000   0.0000
     0.0000   0.0000   0.0000   0.0000   0.0000   0.0000   0.0000   0.0000
     0.0000   0.0000   0.0000   0.0000   0.0000   0.0000   0.0000   0.0000
     0.0000   0.0000   0.0000   0.0000

          k = 0.0600 0.0000 0.0000 (105747 PWs)   bands (ev):

   -21.7875 -20.7008 -18.9242 -17.0548 -16.8417 -16.0900 -15.3060 -15.0228
   -14.2031 -12.8975 -12.1178 -12.0951 -11.2104 -10.2003  -9.8665  -9.8016
    -9.4637  -8.6469  -7.9959  -7.6706  -6.7056  -6.5031  -6.2402  -4.8707
    -4.4370  -3.6241  -2.0346  -1.1181  -1.0948   0.2867   0.5697   0.8120
     1.1941   1.3651   1.5625   1.5958   1.6092   1.8363   1.9705   2.2578
     2.4663   2.9435   2.9662   3.2601   3.2609   3.4462   3.5577   3.5997
     3.9716   3.9912   4.2592   4.5946   4.6373   4.7040   4.9759   5.0826
     5.2537   5.3413   5.4991   5.7655

     occupation numbers 
     1.0000   1.0000   1.0000   1.0000   1.0000   1.0000   1.0000   1.0000
     1.0000   1.0000   1.0000   1.0000   1.0000   1.0000   1.0000   1.0000
     1.0000   1.0000   1.0000   1.0000   1.0000   1.0000   1.0000   1.0000
     1.0000   1.0000   0.0000   0.0000   0.0000   0.0000   0.0000   0.0000
     0.0000   0.0000   0.0000   0.0000   0.0000   0.0000   0.0000   0.0000
     0.0000   0.0000   0.0000   0.0000   0.0000   0.0000   0.0000   0.0000
     0.0000   0.0000   0.0000   0.0000   0.0000   0.0000   0.0000   0.0000
     0.0000   0.0000   0.0000   0.0000

          k = 0.0650 0.0000 0.0000 (105737 PWs)   bands (ev):

   -21.7839 -20.6974 -18.9211 -17.0898 -16.8425 -16.1280 -15.2644 -14.9903
   -14.2227 -12.8884 -12.1324 -12.0723 -11.2075 -10.1845  -9.8622  -9.8136
    -9.4594  -8.6428  -7.9905  -7.6813  -6.7024  -6.5101  -6.2480  -4.8936
    -4.4394  -3.6584  -2.0004  -1.1201  -1.0678   0.2915   0.5745   0.8169
     1.1986   1.3701   1.5675   1.5996   1.6014   1.8414   1.9755   2.2627
     2.4711   2.9483   2.9726   3.2654   3.2659   3.4513   3.5628   3.6048
     3.9768   3.9961   4.2639   4.5990   4.6253   4.7088   4.9767   5.0885
     5.2577   5.3467   5.5037   5.7714

     occupation numbers 
     1.0000   1.0000   1.0000   1.0000   1.0000   1.0000   1.0000   1.0000
     1.0000   1.0000   1.0000   1.0000   1.0000   1.0000   1.0000   1.0000
     1.0000   1.0000   1.0000   1.0000   1.0000   1.0000   1.0000   1.0000
     1.0000   1.0000   0.0000   0.0000   0.0000   0.0000   0.0000   0.0000
     0.0000   0.0000   0.0000   0.0000   0.0000   0.0000   0.0000   0.0000
     0.0000   0.0000   0.0000   0.0000   0.0000   0.0000   0.0000   0.0000
     0.0000   0.0000   0.0000   0.0000   0.0000   0.0000   0.0000   0.0000
     0.0000   0.0000   0.0000   0.0000

          k = 0.0700 0.0000 0.0000 (105753 PWs)   bands (ev):

   -21.7800 -20.6936 -18.9178 -17.1263 -16.8428 -16.1664 -15.2213 -14.9578
   -14.2433 -12.8786 -12.1475 -12.0483 -11.2044 -10.1678  -9.8576  -9.8263
    -9.4548  -8.6383  -7.9849  -7.6929  -6.6989  -6.5177  -6.2565  -4.9179
    -4.4421  -3.6939  -1.9651  -1.1222  -1.0390   0.2968   0.5797   0.8222
     1.2033   1.3755   1.5728   1.5893   1.6074   1.8468   1.9809   2.2681
     2.4763   2.9536   2.9794   3.2710   3.2713   3.4567   3.5682   3.6101
     3.9823   4.0015   4.2689   4.6035   4.6124   4.7141   4.9776   5.0947
     5.2619   5.3526   5.5086   5.7777

     occupation numbers 
     1.0000   1.0000   1.0000   1.0000   1.0000   1.0000   1.0000   1.0000
     1.0000   1.0000   1.0000   1.0000   1.0000   1.0000   1.0000   1.0000
     1.0000   1.0000   1.0000   1.0000   1.0000   1.0000   1.0000   1.0000
     1.0000   1.0000   0.0000   0.0000   0.0000   0.0000   0.0000   0.0000
     0.0000   0.0000   0.0000   0.0000   0.0000   0.0000   0.0000   0.0000
     0.0000   0.0000   0.0000   0.0000   0.0000   0.0000   0.0000   0.0000
     0.0000   0.0000   0.0000   0.0000   0.0000   0.0000   0.0000   0.0000
     0.0000   0.0000   0.0000   0.0000

          k = 0.0750 0.0000 0.0000 (105755 PWs)   bands (ev):

   -21.7759 -20.6896 -18.9143 -17.1642 -16.8428 -16.2052 -15.1769 -14.9254
   -14.2648 -12.8685 -12.1630 -12.0231 -11.2010 -10.1503  -9.8526  -9.8396
    -9.4498  -8.6336  -7.9790  -7.7052  -6.6952  -6.5260  -6.2656  -4.9436
    -4.4449  -3.7304  -1.9288  -1.1244  -1.0085   0.3024   0.5852   0.8279
     1.2084   1.3814   1.5785   1.5785   1.6138   1.8527   1.9867   2.2738
     2.4819   2.9593   2.9867   3.2771   3.2771   3.4626   3.5740   3.6159
     3.9883   4.0073   4.2742   4.5987   4.6083   4.7197   4.9786   5.1015
     5.2660   5.3588   5.5139   5.7845

     occupation numbers 
     1.0000   1.0000   1.0000   1.0000   1.0000   1.0000   1.0000   1.0000
     1.0000   1.0000   1.0000   1.0000   1.0000   1.0000   1.0000   1.0000
     1.0000   1.0000   1.0000   1.0000   1.0000   1.0000   1.0000   1.0000
     1.0000   1.0000   0.0000   0.0000   0.0000   0.0000   0.0000   0.0000
     0.0000   0.0000   0.0000   0.0000   0.0000   0.0000   0.0000   0.0000
     0.0000   0.0000   0.0000   0.0000   0.0000   0.0000   0.0000   0.0000
     0.0000   0.0000   0.0000   0.0000   0.0000   0.0000   0.0000   0.0000
     0.0000   0.0000   0.0000   0.0000

          k = 0.0800 0.0000 0.0000 (105735 PWs)   bands (ev):

   -21.7714 -20.6853 -18.9105 -17.2030 -16.8425 -16.2444 -15.1314 -14.8931
   -14.2871 -12.8579 -12.1788 -11.9968 -11.1974 -10.1322  -9.8536  -9.8473
    -9.4445  -8.6285  -7.9730  -7.7182  -6.6912  -6.5349  -6.2752  -4.9706
    -4.4480  -3.7677  -1.8915  -1.1268  -0.9764   0.3084   0.5912   0.8340
     1.2136   1.3876   1.5671   1.5846   1.6207   1.8590   1.9929   2.2800
     2.4879   2.9654   2.9945   3.2832   3.2836   3.4689   3.5802   3.6221
     3.9945   4.0135   4.2800   4.5841   4.6133   4.7257   4.9798   5.1087
     5.2702   5.3654   5.5195   5.7917

     occupation numbers 
     1.0000   1.0000   1.0000   1.0000   1.0000   1.0000   1.0000   1.0000
     1.0000   1.0000   1.0000   1.0000   1.0000   1.0000   1.0000   1.0000
     1.0000   1.0000   1.0000   1.0000   1.0000   1.0000   1.0000   1.0000
     1.0000   1.0000   0.0000   0.0000   0.0000   0.0000   0.0000   0.0000
     0.0000   0.0000   0.0000   0.0000   0.0000   0.0000   0.0000   0.0000
     0.0000   0.0000   0.0000   0.0000   0.0000   0.0000   0.0000   0.0000
     0.0000   0.0000   0.0000   0.0000   0.0000   0.0000   0.0000   0.0000
     0.0000   0.0000   0.0000   0.0000

          k = 0.0850 0.0000 0.0000 (105751 PWs)   bands (ev):

   -21.7667 -20.6807 -18.9064 -17.2427 -16.8420 -16.2838 -15.0848 -14.8610
   -14.3102 -12.8471 -12.1946 -11.9697 -11.1936 -10.1134  -9.8682  -9.8416
    -9.4388  -8.6231  -7.9669  -7.7320  -6.6870  -6.5444  -6.2854  -4.9988
    -4.4513  -3.8059  -1.8535  -1.1292  -0.9427   0.3148   0.5975   0.8405
     1.2191   1.3942   1.5553   1.5911   1.6280   1.8657   1.9995   2.2865
     2.4943   2.9718   3.0028   3.2898   3.2905   3.4756   3.5869   3.6286
     4.0012   4.0201   4.2861   4.5687   4.6184   4.7320   4.9811   5.1163
     5.2743   5.3725   5.5255   5.7994

     occupation numbers 
     1.0000   1.0000   1.0000   1.0000   1.0000   1.0000   1.0000   1.0000
     1.0000   1.0000   1.0000   1.0000   1.0000   1.0000   1.0000   1.0000
     1.0000   1.0000   1.0000   1.0000   1.0000   1.0000   1.0000   1.0000
     1.0000   1.0000   0.0000   0.0000   0.0000   0.0000   0.0000   0.0000
     0.0000   0.0000   0.0000   0.0000   0.0000   0.0000   0.0000   0.0000
     0.0000   0.0000   0.0000   0.0000   0.0000   0.0000   0.0000   0.0000
     0.0000   0.0000   0.0000   0.0000   0.0000   0.0000   0.0000   0.0000
     0.0000   0.0000   0.0000   0.0000

          k = 0.0900 0.0000 0.0000 (105731 PWs)   bands (ev):

   -21.7616 -20.6759 -18.9021 -17.2830 -16.8413 -16.3235 -15.0372 -14.8292
   -14.3340 -12.8362 -12.2103 -11.9416 -11.1895 -10.0940  -9.8833  -9.8356
    -9.4328  -8.6174  -7.9608  -7.7464  -6.6825  -6.5546  -6.2962  -5.0281
    -4.4548  -3.8447  -1.8148  -1.1317  -0.9075   0.3216   0.6042   0.8474
     1.2247   1.4012   1.5430   1.5980   1.6358   1.8728   2.0065   2.2934
     2.5011   2.9787   3.0115   3.2968   3.2978   3.4827   3.5939   3.6355
     4.0082   4.0271   4.2926   4.5525   4.6237   4.7388   4.9825   5.1244
     5.2782   5.3799   5.5317   5.8076

     occupation numbers 
     1.0000   1.0000   1.0000   1.0000   1.0000   1.0000   1.0000   1.0000
     1.0000   1.0000   1.0000   1.0000   1.0000   1.0000   1.0000   1.0000
     1.0000   1.0000   1.0000   1.0000   1.0000   1.0000   1.0000   1.0000
     1.0000   1.0000   0.0000   0.0000   0.0000   0.0000   0.0000   0.0000
     0.0000   0.0000   0.0000   0.0000   0.0000   0.0000   0.0000   0.0000
     0.0000   0.0000   0.0000   0.0000   0.0000   0.0000   0.0000   0.0000
     0.0000   0.0000   0.0000   0.0000   0.0000   0.0000   0.0000   0.0000
     0.0000   0.0000   0.0000   0.0000

          k = 0.0950 0.0000 0.0000 (105753 PWs)   bands (ev):

   -21.7563 -20.6708 -18.8976 -17.3240 -16.8405 -16.3633 -14.9889 -14.7978
   -14.3583 -12.8253 -12.2256 -11.9129 -11.1852 -10.0741  -9.8989  -9.8293
    -9.4264  -8.6113  -7.9546  -7.7615  -6.6778  -6.5654  -6.3076  -5.0586
    -4.4586  -3.8841  -1.7755  -1.1342  -0.8708   0.3288   0.6112   0.8547
     1.2304   1.4086   1.5304   1.6053   1.6440   1.8803   2.0139   2.3008
     2.5083   2.9859   3.0207   3.3041   3.3055   3.4902   3.6013   3.6427
     4.0155   4.0345   4.2994   4.5356   4.6290   4.7460   4.9840   5.1330
     5.2819   5.3878   5.5384   5.8161

     occupation numbers 
     1.0000   1.0000   1.0000   1.0000   1.0000   1.0000   1.0000   1.0000
     1.0000   1.0000   1.0000   1.0000   1.0000   1.0000   1.0000   1.0000
     1.0000   1.0000   1.0000   1.0000   1.0000   1.0000   1.0000   1.0000
     1.0000   1.0000   0.0000   0.0000   0.0000   0.0000   0.0000   0.0000
     0.0000   0.0000   0.0000   0.0000   0.0000   0.0000   0.0000   0.0000
     0.0000   0.0000   0.0000   0.0000   0.0000   0.0000   0.0000   0.0000
     0.0000   0.0000   0.0000   0.0000   0.0000   0.0000   0.0000   0.0000
     0.0000   0.0000   0.0000   0.0000

          k = 0.1000 0.0000 0.0000 (105765 PWs)   bands (ev):

   -21.7507 -20.6654 -18.8929 -17.3654 -16.8396 -16.4032 -14.9397 -14.7667
   -14.3832 -12.8146 -12.2403 -11.8834 -11.1806 -10.0538  -9.9149  -9.8226
    -9.4197  -8.6050  -7.9484  -7.7773  -6.6728  -6.5770  -6.3195  -5.0901
    -4.4626  -3.9240  -1.7358  -1.1368  -0.8329   0.3364   0.6187   0.8624
     1.2361   1.4165   1.5175   1.6129   1.6526   1.8882   2.0217   2.3085
     2.5158   2.9936   3.0303   3.3119   3.3137   3.4981   3.6092   3.6503
     4.0232   4.0423   4.3067   4.5179   4.6344   4.7535   4.9856   5.1420
     5.2852   5.3960   5.5453   5.8051

     occupation numbers 
     1.0000   1.0000   1.0000   1.0000   1.0000   1.0000   1.0000   1.0000
     1.0000   1.0000   1.0000   1.0000   1.0000   1.0000   1.0000   1.0000
     1.0000   1.0000   1.0000   1.0000   1.0000   1.0000   1.0000   1.0000
     1.0000   1.0000   0.0000   0.0000   0.0000   0.0000   0.0000   0.0000
     0.0000   0.0000   0.0000   0.0000   0.0000   0.0000   0.0000   0.0000
     0.0000   0.0000   0.0000   0.0000   0.0000   0.0000   0.0000   0.0000
     0.0000   0.0000   0.0000   0.0000   0.0000   0.0000   0.0000   0.0000
     0.0000   0.0000   0.0000   0.0000

          k = 0.1050 0.0000 0.0000 (105789 PWs)   bands (ev):

   -21.7448 -20.6597 -18.8879 -17.4072 -16.8386 -16.4433 -14.8899 -14.7360
   -14.4084 -12.8045 -12.2541 -11.8534 -11.1758 -10.0330  -9.9312  -9.8156
    -9.4126  -8.5983  -7.9422  -7.7937  -6.6676  -6.5892  -6.3319  -5.1225
    -4.4668  -3.9644  -1.6955  -1.1394  -0.7936   0.3443   0.6265   0.8705
     1.2416   1.4247   1.5046   1.6210   1.6616   1.8965   2.0299   2.3166
     2.5238   3.0016   3.0404   3.3200   3.3222   3.5064   3.6174   3.6582
     4.0312   4.0504   4.3142   4.4995   4.6398   4.7614   4.9873   5.1514
     5.2881   5.4047   5.5526   5.7862

     occupation numbers 
     1.0000   1.0000   1.0000   1.0000   1.0000   1.0000   1.0000   1.0000
     1.0000   1.0000   1.0000   1.0000   1.0000   1.0000   1.0000   1.0000
     1.0000   1.0000   1.0000   1.0000   1.0000   1.0000   1.0000   1.0000
     1.0000   1.0000   0.0000   0.0000   0.0000   0.0000   0.0000   0.0000
     0.0000   0.0000   0.0000   0.0000   0.0000   0.0000   0.0000   0.0000
     0.0000   0.0000   0.0000   0.0000   0.0000   0.0000   0.0000   0.0000
     0.0000   0.0000   0.0000   0.0000   0.0000   0.0000   0.0000   0.0000
     0.0000   0.0000   0.0000   0.0000

          k = 0.1100 0.0000 0.0000 (105791 PWs)   bands (ev):

   -21.7387 -20.6538 -18.8827 -17.4493 -16.8376 -16.4835 -14.8395 -14.7057
   -14.4341 -12.7950 -12.2667 -11.8229 -11.1708 -10.0120  -9.9479  -9.8082
    -9.4052  -8.5912  -7.9362  -7.8107  -6.6621  -6.6021  -6.3449  -5.1559
    -4.4713  -4.0052  -1.6549  -1.1420  -0.7531   0.3527   0.6347   0.8790
     1.2468   1.4333   1.4918   1.6295   1.6711   1.9051   2.0385   2.3251
     2.5321   3.0101   3.0510   3.3285   3.3312   3.5151   3.6261   3.6664
     4.0394   4.0590   4.3222   4.4805   4.6452   4.7697   4.9890   5.1613
     5.2905   5.4137   5.5602   5.7661

     occupation numbers 
     1.0000   1.0000   1.0000   1.0000   1.0000   1.0000   1.0000   1.0000
     1.0000   1.0000   1.0000   1.0000   1.0000   1.0000   1.0000   1.0000
     1.0000   1.0000   1.0000   1.0000   1.0000   1.0000   1.0000   1.0000
     1.0000   1.0000   0.0000   0.0000   0.0000   0.0000   0.0000   0.0000
     0.0000   0.0000   0.0000   0.0000   0.0000   0.0000   0.0000   0.0000
     0.0000   0.0000   0.0000   0.0000   0.0000   0.0000   0.0000   0.0000
     0.0000   0.0000   0.0000   0.0000   0.0000   0.0000   0.0000   0.0000
     0.0000   0.0000   0.0000   0.0000

          k = 0.1150 0.0000 0.0000 (105769 PWs)   bands (ev):

   -21.7322 -20.6475 -18.8772 -17.4917 -16.8366 -16.5237 -14.7885 -14.6759
   -14.4600 -12.7866 -12.2776 -11.7920 -11.1654  -9.9907  -9.9648  -9.8005
    -9.3974  -8.5839  -7.9303  -7.8283  -6.6564  -6.6158  -6.3584  -5.1901
    -4.4760  -4.0463  -1.6139  -1.1447  -0.7114   0.3614   0.6433   0.8879
     1.2515   1.4424   1.4794   1.6383   1.6810   1.9142   2.0475   2.3341
     2.5409   3.0189   3.0620   3.3374   3.3406   3.5242   3.6351   3.6750
     4.0480   4.0680   4.3305   4.4607   4.6506   4.7784   4.9907   5.1717
     5.2923   5.4231   5.5681   5.7449

     occupation numbers 
     1.0000   1.0000   1.0000   1.0000   1.0000   1.0000   1.0000   1.0000
     1.0000   1.0000   1.0000   1.0000   1.0000   1.0000   1.0000   1.0000
     1.0000   1.0000   1.0000   1.0000   1.0000   1.0000   1.0000   1.0000
     1.0000   1.0000   0.0000   0.0000   0.0000   0.0000   0.0000   0.0000
     0.0000   0.0000   0.0000   0.0000   0.0000   0.0000   0.0000   0.0000
     0.0000   0.0000   0.0000   0.0000   0.0000   0.0000   0.0000   0.0000
     0.0000   0.0000   0.0000   0.0000   0.0000   0.0000   0.0000   0.0000
     0.0000   0.0000   0.0000   0.0000

          k = 0.1200 0.0000 0.0000 (105755 PWs)   bands (ev):

   -21.7254 -20.6411 -18.8715 -17.5343 -16.8355 -16.5639 -14.7371 -14.6467
   -14.4861 -12.7797 -12.2866 -11.7609 -11.1597  -9.9819  -9.9692  -9.7924
    -9.3893  -8.5762  -7.9245  -7.8464  -6.6504  -6.6301  -6.3725  -5.2251
    -4.4809  -4.0877  -1.5726  -1.1473  -0.6686   0.3706   0.6522   0.8972
     1.2554   1.4518   1.4676   1.6476   1.6913   1.9237   2.0569   2.3434
     2.5500   3.0281   3.0735   3.3467   3.3503   3.5337   3.6446   3.6839
     4.0569   4.0774   4.3391   4.4404   4.6558   4.7875   4.9923   5.1825
     5.2933   5.4329   5.5764   5.7229

     occupation numbers 
     1.0000   1.0000   1.0000   1.0000   1.0000   1.0000   1.0000   1.0000
     1.0000   1.0000   1.0000   1.0000   1.0000   1.0000   1.0000   1.0000
     1.0000   1.0000   1.0000   1.0000   1.0000   1.0000   1.0000   1.0000
     1.0000   1.0000   0.0000   0.0000   0.0000   0.0000   0.0000   0.0000
     0.0000   0.0000   0.0000   0.0000   0.0000   0.0000   0.0000   0.0000
     0.0000   0.0000   0.0000   0.0000   0.0000   0.0000   0.0000   0.0000
     0.0000   0.0000   0.0000   0.0000   0.0000   0.0000   0.0000   0.0000
     0.0000   0.0000   0.0000   0.0000

          k = 0.1250 0.0000 0.0000 (105753 PWs)   bands (ev):

   -21.7184 -20.6343 -18.8656 -17.5770 -16.8344 -16.6041 -14.6854 -14.6179
   -14.5122 -12.7745 -12.2931 -11.7296 -11.1538  -9.9992  -9.9475  -9.7841
    -9.3809  -8.5682  -7.9190  -7.8651  -6.6452  -6.6442  -6.3870  -5.2608
    -4.4861  -4.1293  -1.5311  -1.1499  -0.6248   0.3801   0.6615   0.9068
     1.2580   1.4569   1.4616   1.6572   1.7021   1.9336   2.0667   2.3531
     2.5596   3.0377   3.0853   3.3564   3.3605   3.5436   3.6545   3.6930
     4.0660   4.0871   4.3481   4.4195   4.6609   4.7969   4.9938   5.1937
     5.2935   5.4431   5.5850   5.7001

     occupation numbers 
     1.0000   1.0000   1.0000   1.0000   1.0000   1.0000   1.0000   1.0000
     1.0000   1.0000   1.0000   1.0000   1.0000   1.0000   1.0000   1.0000
     1.0000   1.0000   1.0000   1.0000   1.0000   1.0000   1.0000   1.0000
     1.0000   1.0000   0.0000   0.0000   0.0000   0.0000   0.0000   0.0000
     0.0000   0.0000   0.0000   0.0000   0.0000   0.0000   0.0000   0.0000
     0.0000   0.0000   0.0000   0.0000   0.0000   0.0000   0.0000   0.0000
     0.0000   0.0000   0.0000   0.0000   0.0000   0.0000   0.0000   0.0000
     0.0000   0.0000   0.0000   0.0000

          k = 0.1300 0.0000 0.0000 (105771 PWs)   bands (ev):

   -21.7111 -20.6273 -18.8595 -17.6199 -16.8334 -16.6443 -14.6337 -14.5897
   -14.5379 -12.7714 -12.2968 -11.6983 -11.1474 -10.0165  -9.9257  -9.7753
    -9.3721  -8.5599  -7.9137  -7.8844  -6.6610  -6.6377  -6.4020  -5.2972
    -4.4916  -4.1712  -1.4894  -1.1525  -0.5800   0.3900   0.6712   0.9169
     1.2590   1.4477   1.4718   1.6672   1.7132   1.9439   2.0769   2.3632
     2.5695   3.0477   3.0977   3.3664   3.3711   3.5539   3.6647   3.7024
     4.0754   4.0973   4.3575   4.3980   4.6658   4.8068   4.9950   5.2054
     5.2928   5.4537   5.5939   5.6768

     occupation numbers 
     1.0000   1.0000   1.0000   1.0000   1.0000   1.0000   1.0000   1.0000
     1.0000   1.0000   1.0000   1.0000   1.0000   1.0000   1.0000   1.0000
     1.0000   1.0000   1.0000   1.0000   1.0000   1.0000   1.0000   1.0000
     1.0000   1.0000   0.0000   0.0000   0.0000   0.0000   0.0000   0.0000
     0.0000   0.0000   0.0000   0.0000   0.0000   0.0000   0.0000   0.0000
     0.0000   0.0000   0.0000   0.0000   0.0000   0.0000   0.0000   0.0000
     0.0000   0.0000   0.0000   0.0000   0.0000   0.0000   0.0000   0.0000
     0.0000   0.0000   0.0000   0.0000

          k = 0.1350 0.0000 0.0000 (105755 PWs)   bands (ev):

   -21.7035 -20.6199 -18.8531 -17.6628 -16.8324 -16.6845 -14.5874 -14.5620
   -14.5579 -12.7708 -12.2974 -11.6670 -11.1407 -10.0338  -9.9038  -9.7662
    -9.3630  -8.5512  -7.9086  -7.9041  -6.6776  -6.6310  -6.4175  -5.3342
    -4.4973  -4.2132  -1.4474  -1.1550  -0.5342   0.4003   0.6813   0.9274
     1.2578   1.4405   1.4825   1.6776   1.7248   1.9546   2.0875   2.3737
     2.5799   3.0582   3.1104   3.3769   3.3821   3.5646   3.6754   3.7120
     4.0850   4.1079   4.3671   4.3761   4.6705   4.8170   4.9959   5.2175
     5.2911   5.4647   5.6031   5.6532

     occupation numbers 
     1.0000   1.0000   1.0000   1.0000   1.0000   1.0000   1.0000   1.0000
     1.0000   1.0000   1.0000   1.0000   1.0000   1.0000   1.0000   1.0000
     1.0000   1.0000   1.0000   1.0000   1.0000   1.0000   1.0000   1.0000
     1.0000   1.0000   0.0000   0.0000   0.0000   0.0000   0.0000   0.0000
     0.0000   0.0000   0.0000   0.0000   0.0000   0.0000   0.0000   0.0000
     0.0000   0.0000   0.0000   0.0000   0.0000   0.0000   0.0000   0.0000
     0.0000   0.0000   0.0000   0.0000   0.0000   0.0000   0.0000   0.0000
     0.0000   0.0000   0.0000   0.0000

          k = 0.1400 0.0000 0.0000 (105751 PWs)   bands (ev):

   -21.6956 -20.6124 -18.8465 -17.7057 -16.8314 -16.7246 -14.5957 -14.5350
   -14.5229 -12.7727 -12.2946 -11.6359 -11.1335 -10.0510  -9.8819  -9.7568
    -9.3536  -8.5423  -7.9242  -7.9039  -6.6949  -6.6241  -6.4335  -5.3718
    -4.5032  -4.2554  -1.4053  -1.1575  -0.4876   0.4110   0.6917   0.9382
     1.2540   1.4359   1.4935   1.6884   1.7368   1.9657   2.0985   2.3846
     2.5906   3.0690   3.1236   3.3877   3.3935   3.5757   3.6865   3.7217
     4.0948   4.1189   4.3537   4.3771   4.6749   4.8276   4.9963   5.2301
     5.2884   5.4761   5.6126   5.6295

     occupation numbers 
     1.0000   1.0000   1.0000   1.0000   1.0000   1.0000   1.0000   1.0000
     1.0000   1.0000   1.0000   1.0000   1.0000   1.0000   1.0000   1.0000
     1.0000   1.0000   1.0000   1.0000   1.0000   1.0000   1.0000   1.0000
     1.0000   1.0000   0.0000   0.0000   0.0000   0.0000   0.0000   0.0000
     0.0000   0.0000   0.0000   0.0000   0.0000   0.0000   0.0000   0.0000
     0.0000   0.0000   0.0000   0.0000   0.0000   0.0000   0.0000   0.0000
     0.0000   0.0000   0.0000   0.0000   0.0000   0.0000   0.0000   0.0000
     0.0000   0.0000   0.0000   0.0000

          k = 0.1450 0.0000 0.0000 (105751 PWs)   bands (ev):

   -21.6874 -20.6045 -18.8397 -17.7487 -16.8305 -16.7647 -14.6211 -14.5085
   -14.4706 -12.7774 -12.2883 -11.6052 -11.1258 -10.0681  -9.8600  -9.7471
    -9.3439  -8.5330  -7.9448  -7.8995  -6.7130  -6.6169  -6.4500  -5.4099
    -4.5094  -4.2977  -1.3631  -1.1599  -0.4401   0.4221   0.7025   0.9495
     1.2473   1.4341   1.5050   1.6996   1.7493   1.9772   2.1099   2.3958
     2.6018   3.0801   3.1373   3.3988   3.4053   3.5872   3.6980   3.7316
     4.1048   4.1302   4.3310   4.3874   4.6789   4.8386   4.9960   5.2430
     5.2847   5.4878   5.6059   5.6224

     occupation numbers 
     1.0000   1.0000   1.0000   1.0000   1.0000   1.0000   1.0000   1.0000
     1.0000   1.0000   1.0000   1.0000   1.0000   1.0000   1.0000   1.0000
     1.0000   1.0000   1.0000   1.0000   1.0000   1.0000   1.0000   1.0000
     1.0000   1.0000   0.0000   0.0000   0.0000   0.0000   0.0000   0.0000
     0.0000   0.0000   0.0000   0.0000   0.0000   0.0000   0.0000   0.0000
     0.0000   0.0000   0.0000   0.0000   0.0000   0.0000   0.0000   0.0000
     0.0000   0.0000   0.0000   0.0000   0.0000   0.0000   0.0000   0.0000
     0.0000   0.0000   0.0000   0.0000

          k = 0.1500 0.0000 0.0000 (105743 PWs)   bands (ev):

   -21.6790 -20.5964 -18.8327 -17.7917 -16.8297 -16.8047 -14.6473 -14.4826
   -14.4170 -12.7847 -12.2786 -11.5750 -11.1175 -10.0850  -9.8381  -9.7370
    -9.3339  -8.5234  -7.9659  -7.8955  -6.7318  -6.6095  -6.4669  -5.4486
    -4.5159  -4.3401  -1.3208  -1.1621  -0.3918   0.4336   0.7137   0.9612
     1.2377   1.4351   1.5168   1.7112   1.7621   1.9891   2.1218   2.4075
     2.6133   3.0917   3.1513   3.4104   3.4174   3.5992   3.7099   3.7416
     4.1149   4.1420   4.3079   4.3980   4.6825   4.8499   4.9948   5.2564
     5.2798   5.5000   5.5828   5.6325

     occupation numbers 
     1.0000   1.0000   1.0000   1.0000   1.0000   1.0000   1.0000   1.0000
     1.0000   1.0000   1.0000   1.0000   1.0000   1.0000   1.0000   1.0000
     1.0000   1.0000   1.0000   1.0000   1.0000   1.0000   1.0000   1.0000
     1.0000   1.0000   0.0000   0.0000   0.0000   0.0000   0.0000   0.0000
     0.0000   0.0000   0.0000   0.0000   0.0000   0.0000   0.0000   0.0000
     0.0000   0.0000   0.0000   0.0000   0.0000   0.0000   0.0000   0.0000
     0.0000   0.0000   0.0000   0.0000   0.0000   0.0000   0.0000   0.0000
     0.0000   0.0000   0.0000   0.0000

          k = 0.1550 0.0000 0.0000 (105699 PWs)   bands (ev):

   -21.6702 -20.5880 -18.8255 -17.8347 -16.8446 -16.8289 -14.6736 -14.4574
   -14.3629 -12.7944 -12.2655 -11.5455 -11.1085 -10.1016  -9.8163  -9.7266
    -9.3235  -8.5134  -7.9873  -7.8919  -6.7514  -6.6018  -6.4842  -5.4876
    -4.5227  -4.3825  -1.2783  -1.1643  -0.3427   0.4455   0.7253   0.9732
     1.2255   1.4387   1.5290   1.7232   1.7754   2.0014   2.1340   2.4196
     2.6253   3.1037   3.1658   3.4223   3.4300   3.6115   3.7222   3.7516
     4.1253   4.1541   4.2848   4.4089   4.6856   4.8617   4.9925   5.2703
     5.2738   5.5125   5.5605   5.6427

     occupation numbers 
     1.0000   1.0000   1.0000   1.0000   1.0000   1.0000   1.0000   1.0000
     1.0000   1.0000   1.0000   1.0000   1.0000   1.0000   1.0000   1.0000
     1.0000   1.0000   1.0000   1.0000   1.0000   1.0000   1.0000   1.0000
     1.0000   1.0000   0.0000   0.0000   0.0000   0.0000   0.0000   0.0000
     0.0000   0.0000   0.0000   0.0000   0.0000   0.0000   0.0000   0.0000
     0.0000   0.0000   0.0000   0.0000   0.0000   0.0000   0.0000   0.0000
     0.0000   0.0000   0.0000   0.0000   0.0000   0.0000   0.0000   0.0000
     0.0000   0.0000   0.0000   0.0000

          k = 0.1600 0.0000 0.0000 (105691 PWs)   bands (ev):

   -21.6612 -20.5793 -18.8180 -17.8776 -16.8844 -16.8283 -14.6998 -14.4328
   -14.3085 -12.8064 -12.2494 -11.5169 -11.0986 -10.1178  -9.7947  -9.7158
    -9.3129  -8.5032  -8.0091  -7.8887  -6.7717  -6.5940  -6.5020  -5.5271
    -4.5297  -4.4251  -1.2358  -1.1664  -0.2930   0.4577   0.7372   0.9857
     1.2110   1.4446   1.5417   1.7355   1.7891   2.0142   2.1466   2.4321
     2.6376   3.1161   3.1807   3.4346   3.4430   3.6242   3.7349   3.7615
     4.1357   4.1667   4.2615   4.4200   4.6883   4.8738   4.9889   5.2666
     5.2845   5.5253   5.5393   5.6530

     occupation numbers 
     1.0000   1.0000   1.0000   1.0000   1.0000   1.0000   1.0000   1.0000
     1.0000   1.0000   1.0000   1.0000   1.0000   1.0000   1.0000   1.0000
     1.0000   1.0000   1.0000   1.0000   1.0000   1.0000   1.0000   1.0000
     1.0000   1.0000   0.0000   0.0000   0.0000   0.0000   0.0000   0.0000
     0.0000   0.0000   0.0000   0.0000   0.0000   0.0000   0.0000   0.0000
     0.0000   0.0000   0.0000   0.0000   0.0000   0.0000   0.0000   0.0000
     0.0000   0.0000   0.0000   0.0000   0.0000   0.0000   0.0000   0.0000
     0.0000   0.0000   0.0000   0.0000

          k = 0.1650 0.0000 0.0000 (105667 PWs)   bands (ev):

   -21.6518 -20.5704 -18.8104 -17.9205 -16.9240 -16.8278 -14.7259 -14.4089
   -14.2537 -12.8203 -12.2303 -11.4895 -11.0878 -10.1336  -9.7732  -9.7047
    -9.3020  -8.4926  -8.0312  -7.8859  -6.7929  -6.5858  -6.5202  -5.5670
    -4.5369  -4.4676  -1.1932  -1.1683  -0.2425   0.4704   0.7495   0.9986
     1.1946   1.4524   1.5547   1.7483   1.8032   2.0273   2.1596   2.4450
     2.6503   3.1288   3.1960   3.4473   3.4563   3.6373   3.7480   3.7711
     4.1462   4.1797   4.2383   4.4314   4.6904   4.8863   4.9837   5.2582
     5.2992   5.5197   5.5386   5.6631

     occupation numbers 
[...]
     0.0000   0.0000   0.0000   0.0000   0.0000   0.0000   0.0000   0.0000
     0.0000   0.0000   0.0000   0.0000

          k = 0.4350 0.0000 0.0000 (105632 PWs)   bands (ev):

   -20.7328 -20.0497 -19.6025 -18.9778 -17.9009 -17.3847 -15.1173 -14.6320
   -12.8409 -12.2513 -11.0934 -10.0558  -9.8414  -9.8243  -9.3176  -8.9946
    -8.7371  -8.7337  -8.6146  -8.3862  -7.8319  -7.7903  -7.4193  -6.6508
    -5.7842  -5.3026  -0.7957  -0.2341   1.0843   1.7153   1.9454   2.1216
     2.2815   2.7035   2.7600   2.7640   2.8097   2.9345   3.0408   3.3083
     3.3296   3.3351   3.4616   3.7296   3.8106   3.8890   3.9107   3.9721
     4.0633   4.3709   4.4015   4.4972   4.5802   4.6364   4.7236   4.7580
     4.7925   4.8415   4.9378   5.0446

     occupation numbers 
     1.0000   1.0000   1.0000   1.0000   1.0000   1.0000   1.0000   1.0000
     1.0000   1.0000   1.0000   1.0000   1.0000   1.0000   1.0000   1.0000
     1.0000   1.0000   1.0000   1.0000   1.0000   1.0000   1.0000   1.0000
     1.0000   1.0000   0.0000   0.0000   0.0000   0.0000   0.0000   0.0000
     0.0000   0.0000   0.0000   0.0000   0.0000   0.0000   0.0000   0.0000
     0.0000   0.0000   0.0000   0.0000   0.0000   0.0000   0.0000   0.0000
     0.0000   0.0000   0.0000   0.0000   0.0000   0.0000   0.0000   0.0000
     0.0000   0.0000   0.0000   0.0000

          k = 0.4400 0.0000 0.0000 (105652 PWs)   bands (ev):

   -20.7084 -20.0740 -19.5862 -19.0049 -17.8836 -17.4053 -15.1035 -14.6539
   -12.8198 -12.2733 -11.0447 -10.0585  -9.8137  -9.8119  -9.2995  -9.0168
    -8.7665  -8.7528  -8.5857  -8.3730  -7.8571  -7.8220  -7.3963  -6.6836
    -5.7672  -5.3215  -0.7781  -0.2589   1.1247   1.7480   1.9760   2.0836
     2.3159   2.6660   2.7996   2.8092   2.8100   2.9322   3.0724   3.2646
     3.3646   3.3769   3.4964   3.7637   3.7661   3.8447   3.9260   3.9345
     4.0267   4.3265   4.4306   4.4529   4.5498   4.6516   4.7177   4.7530
     4.8065   4.8277   4.9724   5.0746

     occupation numbers 
     1.0000   1.0000   1.0000   1.0000   1.0000   1.0000   1.0000   1.0000
     1.0000   1.0000   1.0000   1.0000   1.0000   1.0000   1.0000   1.0000
     1.0000   1.0000   1.0000   1.0000   1.0000   1.0000   1.0000   1.0000
     1.0000   1.0000   0.0000   0.0000   0.0000   0.0000   0.0000   0.0000
     0.0000   0.0000   0.0000   0.0000   0.0000   0.0000   0.0000   0.0000
     0.0000   0.0000   0.0000   0.0000   0.0000   0.0000   0.0000   0.0000
     0.0000   0.0000   0.0000   0.0000   0.0000   0.0000   0.0000   0.0000
     0.0000   0.0000   0.0000   0.0000

          k = 0.4450 0.0000 0.0000 (105644 PWs)   bands (ev):

   -20.6837 -20.0993 -19.5684 -19.0319 -17.8658 -17.4259 -15.0891 -14.6757
   -12.7985 -12.2956 -10.9961 -10.0740  -9.7913  -9.7819  -9.2836  -9.0421
    -8.7948  -8.7702  -8.5565  -8.3584  -7.8822  -7.8545  -7.3719  -6.7162
    -5.7499  -5.3404  -0.7601  -0.2836   1.1651   1.7810   2.0065   2.0451
     2.3505   2.6283   2.7920   2.8355   2.8581   2.9488   3.1048   3.2215
     3.3999   3.4197   3.5316   3.7220   3.7964   3.8026   3.8800   3.9396
     4.0096   4.2825   4.4089   4.4585   4.5022   4.6790   4.6842   4.7532
     4.8013   4.8633   5.0074   5.1023

     occupation numbers 
     1.0000   1.0000   1.0000   1.0000   1.0000   1.0000   1.0000   1.0000
     1.0000   1.0000   1.0000   1.0000   1.0000   1.0000   1.0000   1.0000
     1.0000   1.0000   1.0000   1.0000   1.0000   1.0000   1.0000   1.0000
     1.0000   1.0000   0.0000   0.0000   0.0000   0.0000   0.0000   0.0000
     0.0000   0.0000   0.0000   0.0000   0.0000   0.0000   0.0000   0.0000
     0.0000   0.0000   0.0000   0.0000   0.0000   0.0000   0.0000   0.0000
     0.0000   0.0000   0.0000   0.0000   0.0000   0.0000   0.0000   0.0000
     0.0000   0.0000   0.0000   0.0000

          k = 0.4500 0.0000 0.0000 (105644 PWs)   bands (ev):

   -20.6588 -20.1254 -19.5493 -19.0589 -17.8477 -17.4466 -15.0742 -14.6973
   -12.7769 -12.3183 -10.9475 -10.0982  -9.7612  -9.7515  -9.2702  -9.0700
    -8.8217  -8.7861  -8.5271  -8.3426  -7.9072  -7.8875  -7.3465  -6.7487
    -5.7323  -5.3593  -0.7417  -0.3081   1.2056   1.8142   2.0063   2.0368
     2.3854   2.5908   2.7644   2.8718   2.9066   2.9756   3.1362   3.1807
     3.4357   3.4631   3.5672   3.6784   3.7569   3.8334   3.8341   3.9130
     4.0250   4.2389   4.3652   4.4521   4.4832   4.6439   4.7195   4.7197
     4.8304   4.8993   5.0429   5.1266

     occupation numbers 
     1.0000   1.0000   1.0000   1.0000   1.0000   1.0000   1.0000   1.0000
     1.0000   1.0000   1.0000   1.0000   1.0000   1.0000   1.0000   1.0000
     1.0000   1.0000   1.0000   1.0000   1.0000   1.0000   1.0000   1.0000
     1.0000   1.0000   0.0000   0.0000   0.0000   0.0000   0.0000   0.0000
     0.0000   0.0000   0.0000   0.0000   0.0000   0.0000   0.0000   0.0000
     0.0000   0.0000   0.0000   0.0000   0.0000   0.0000   0.0000   0.0000
     0.0000   0.0000   0.0000   0.0000   0.0000   0.0000   0.0000   0.0000
     0.0000   0.0000   0.0000   0.0000

          k = 0.4550 0.0000 0.0000 (105632 PWs)   bands (ev):

   -20.6337 -20.1520 -19.5292 -19.0858 -17.8293 -17.4673 -15.0588 -14.7187
   -12.7552 -12.3413 -10.8992 -10.1280  -9.7268  -9.7206  -9.2599  -9.1001
    -8.8465  -8.8007  -8.4974  -8.3258  -7.9319  -7.9208  -7.3203  -6.7810
    -5.7146  -5.3783  -0.7230  -0.3323   1.2460   1.8477   1.9672   2.0668
     2.4205   2.5539   2.7331   2.9085   2.9547   3.0069   3.1306   3.1779
     3.4718   3.5069   3.6031   3.6355   3.7138   3.7883   3.8687   3.8752
     4.0523   4.1956   4.3220   4.4013   4.4992   4.6179   4.6824   4.7563
     4.8632   4.9357   5.0787   5.1091

     occupation numbers 
     1.0000   1.0000   1.0000   1.0000   1.0000   1.0000   1.0000   1.0000
     1.0000   1.0000   1.0000   1.0000   1.0000   1.0000   1.0000   1.0000
     1.0000   1.0000   1.0000   1.0000   1.0000   1.0000   1.0000   1.0000
     1.0000   1.0000   0.0000   0.0000   0.0000   0.0000   0.0000   0.0000
     0.0000   0.0000   0.0000   0.0000   0.0000   0.0000   0.0000   0.0000
     0.0000   0.0000   0.0000   0.0000   0.0000   0.0000   0.0000   0.0000
     0.0000   0.0000   0.0000   0.0000   0.0000   0.0000   0.0000   0.0000
     0.0000   0.0000   0.0000   0.0000

          k = 0.4600 0.0000 0.0000 (105626 PWs)   bands (ev):

   -20.6083 -20.1790 -19.5082 -19.1126 -17.8106 -17.4881 -15.0430 -14.7400
   -12.7332 -12.3644 -10.8511 -10.1613  -9.6901  -9.6892  -9.2535  -9.1317
    -8.8685  -8.8143  -8.4674  -8.3080  -7.9565  -7.9541  -7.2934  -6.8132
    -5.6967  -5.3973  -0.7040  -0.3563   1.2864   1.8813   1.9280   2.0962
     2.4557   2.5181   2.7006   2.9456   3.0024   3.0405   3.0903   3.2107
     3.5082   3.5489   3.5954   3.6394   3.6711   3.7427   3.8350   3.9043
     4.0827   4.1528   4.2792   4.3503   4.4960   4.6116   4.6449   4.7936
     4.8965   4.9725   5.0873   5.1148

     occupation numbers 
     1.0000   1.0000   1.0000   1.0000   1.0000   1.0000   1.0000   1.0000
     1.0000   1.0000   1.0000   1.0000   1.0000   1.0000   1.0000   1.0000
     1.0000   1.0000   1.0000   1.0000   1.0000   1.0000   1.0000   1.0000
     1.0000   1.0000   0.0000   0.0000   0.0000   0.0000   0.0000   0.0000
     0.0000   0.0000   0.0000   0.0000   0.0000   0.0000   0.0000   0.0000
     0.0000   0.0000   0.0000   0.0000   0.0000   0.0000   0.0000   0.0000
     0.0000   0.0000   0.0000   0.0000   0.0000   0.0000   0.0000   0.0000
     0.0000   0.0000   0.0000   0.0000

          k = 0.4650 0.0000 0.0000 (105630 PWs)   bands (ev):

   -20.5827 -20.2062 -19.4865 -19.1393 -17.7917 -17.5089 -15.0267 -14.7611
   -12.7110 -12.3876 -10.8034 -10.1970  -9.6575  -9.6523  -9.2516  -9.1646
    -8.8870  -8.8271  -8.4371  -8.2895  -7.9875  -7.9808  -7.2660  -6.8452
    -5.6786  -5.4163  -0.6845  -0.3801   1.3269   1.8885   1.9151   2.1243
     2.4839   2.4904   2.6683   2.9830   3.0487   3.0498   3.0753   3.2457
     3.5447   3.5450   3.6026   3.6289   3.6759   3.6971   3.7945   3.9401
     4.1105   4.1143   4.2369   4.2993   4.4725   4.6075   4.6262   4.8313
     4.9290   5.0097   5.0644   5.1514

     occupation numbers 
     1.0000   1.0000   1.0000   1.0000   1.0000   1.0000   1.0000   1.0000
     1.0000   1.0000   1.0000   1.0000   1.0000   1.0000   1.0000   1.0000
     1.0000   1.0000   1.0000   1.0000   1.0000   1.0000   1.0000   1.0000
     1.0000   1.0000   0.0000   0.0000   0.0000   0.0000   0.0000   0.0000
     0.0000   0.0000   0.0000   0.0000   0.0000   0.0000   0.0000   0.0000
     0.0000   0.0000   0.0000   0.0000   0.0000   0.0000   0.0000   0.0000
     0.0000   0.0000   0.0000   0.0000   0.0000   0.0000   0.0000   0.0000
     0.0000   0.0000   0.0000   0.0000

          k = 0.4700 0.0000 0.0000 (105634 PWs)   bands (ev):

   -20.5569 -20.2336 -19.4642 -19.1658 -17.7725 -17.5296 -15.0101 -14.7819
   -12.6886 -12.4109 -10.7560 -10.2345  -9.6254  -9.6143  -9.2548  -9.1981
    -8.9013  -8.8394  -8.4066  -8.2704  -8.0208  -8.0050  -7.2381  -6.8770
    -5.6604  -5.4353  -0.6648  -0.4037   1.3673   1.8489   1.9490   2.1503
     2.4523   2.5234   2.6380   3.0071   3.0207   3.0968   3.1111   3.2813
     3.5045   3.5821   3.5873   3.6466   3.6516   3.7114   3.7554   3.9760
     4.0688   4.1465   4.1952   4.2484   4.4394   4.5704   4.6509   4.8694
     4.9574   5.0439   5.0473   5.1882

     occupation numbers 
     1.0000   1.0000   1.0000   1.0000   1.0000   1.0000   1.0000   1.0000
     1.0000   1.0000   1.0000   1.0000   1.0000   1.0000   1.0000   1.0000
     1.0000   1.0000   1.0000   1.0000   1.0000   1.0000   1.0000   1.0000
     1.0000   1.0000   0.0000   0.0000   0.0000   0.0000   0.0000   0.0000
     0.0000   0.0000   0.0000   0.0000   0.0000   0.0000   0.0000   0.0000
     0.0000   0.0000   0.0000   0.0000   0.0000   0.0000   0.0000   0.0000
     0.0000   0.0000   0.0000   0.0000   0.0000   0.0000   0.0000   0.0000
     0.0000   0.0000   0.0000   0.0000

          k = 0.4750 0.0000 0.0000 (105636 PWs)   bands (ev):

   -20.5308 -20.2611 -19.4413 -19.1922 -17.7530 -17.5504 -14.9929 -14.8026
   -12.6661 -12.4343 -10.7091 -10.2734  -9.5930  -9.5766  -9.2635  -9.2320
    -8.9111  -8.8512  -8.3757  -8.2506  -8.0541  -8.0289  -7.2098  -6.9086
    -5.6421  -5.4543  -0.6447  -0.4270   1.4077   1.8092   1.9829   2.1725
     2.4249   2.5478   2.6168   2.9659   3.0588   3.1433   3.1476   3.3171
     3.4632   3.5464   3.6053   3.6203   3.6923   3.7095   3.7542   4.0116
     4.0278   4.1546   4.1792   4.1977   4.4029   4.5335   4.6796   4.9079
     4.9695   5.0385   5.0851   5.2020

     occupation numbers 
     1.0000   1.0000   1.0000   1.0000   1.0000   1.0000   1.0000   1.0000
     1.0000   1.0000   1.0000   1.0000   1.0000   1.0000   1.0000   1.0000
     1.0000   1.0000   1.0000   1.0000   1.0000   1.0000   1.0000   1.0000
     1.0000   1.0000   0.0000   0.0000   0.0000   0.0000   0.0000   0.0000
     0.0000   0.0000   0.0000   0.0000   0.0000   0.0000   0.0000   0.0000
     0.0000   0.0000   0.0000   0.0000   0.0000   0.0000   0.0000   0.0000
     0.0000   0.0000   0.0000   0.0000   0.0000   0.0000   0.0000   0.0000
     0.0000   0.0000   0.0000   0.0000

          k = 0.4800 0.0000 0.0000 (105620 PWs)   bands (ev):

   -20.5046 -20.2885 -19.4179 -19.2183 -17.7334 -17.5711 -14.9754 -14.8230
   -12.6433 -12.4578 -10.6626 -10.3134  -9.5606  -9.5398  -9.2774  -9.2657
    -8.9162  -8.8626  -8.3446  -8.2302  -8.0872  -8.0525  -7.1811  -6.9399
    -5.6236  -5.4733  -0.6243  -0.4500   1.4480   1.7693   2.0166   2.1882
     2.4046   2.5440   2.6247   2.9251   3.0971   3.1846   3.1893   3.3525
     3.4223   3.5069   3.5605   3.6574   3.6708   3.7382   3.7906   3.9881
     4.0445   4.1174   4.1472   4.2118   4.3655   4.4970   4.7101   4.9468
     4.9550   5.0589   5.1232   5.2134

     occupation numbers 
     1.0000   1.0000   1.0000   1.0000   1.0000   1.0000   1.0000   1.0000
     1.0000   1.0000   1.0000   1.0000   1.0000   1.0000   1.0000   1.0000
     1.0000   1.0000   1.0000   1.0000   1.0000   1.0000   1.0000   1.0000
     1.0000   1.0000   0.0000   0.0000   0.0000   0.0000   0.0000   0.0000
     0.0000   0.0000   0.0000   0.0000   0.0000   0.0000   0.0000   0.0000
     0.0000   0.0000   0.0000   0.0000   0.0000   0.0000   0.0000   0.0000
     0.0000   0.0000   0.0000   0.0000   0.0000   0.0000   0.0000   0.0000
     0.0000   0.0000   0.0000   0.0000

          k = 0.4850 0.0000 0.0000 (105616 PWs)   bands (ev):

   -20.4781 -20.3160 -19.3942 -19.2443 -17.7136 -17.5917 -14.9576 -14.8431
   -12.6205 -12.4812 -10.6167 -10.3544  -9.5283  -9.5049  -9.2984  -9.2958
    -8.9172  -8.8736  -8.3133  -8.2094  -8.1201  -8.0759  -7.1520  -6.9710
    -5.6051  -5.4922  -0.6036  -0.4728   1.4883   1.7294   2.0500   2.1935
     2.3950   2.5192   2.6547   2.8846   3.1358   3.2221   3.2342   3.3825
     3.3850   3.4710   3.5152   3.6311   3.6952   3.7826   3.8285   3.9507
     4.0538   4.0972   4.1045   4.2434   4.3291   4.4608   4.7414   4.9290
     4.9861   5.0901   5.1611   5.2231

     occupation numbers 
     1.0000   1.0000   1.0000   1.0000   1.0000   1.0000   1.0000   1.0000
     1.0000   1.0000   1.0000   1.0000   1.0000   1.0000   1.0000   1.0000
     1.0000   1.0000   1.0000   1.0000   1.0000   1.0000   1.0000   1.0000
     1.0000   1.0000   0.0000   0.0000   0.0000   0.0000   0.0000   0.0000
     0.0000   0.0000   0.0000   0.0000   0.0000   0.0000   0.0000   0.0000
     0.0000   0.0000   0.0000   0.0000   0.0000   0.0000   0.0000   0.0000
     0.0000   0.0000   0.0000   0.0000   0.0000   0.0000   0.0000   0.0000
     0.0000   0.0000   0.0000   0.0000

          k = 0.4900 0.0000 0.0000 (105588 PWs)   bands (ev):

   -20.4515 -20.3433 -19.3700 -19.2700 -17.6936 -17.6123 -14.9393 -14.8629
   -12.5975 -12.5046 -10.5713 -10.3963  -9.4970  -9.4736  -9.3286  -9.3174
    -8.9147  -8.8840  -8.2817  -8.1881  -8.1529  -8.0990  -7.1226  -7.0019
    -5.5864  -5.5112  -0.5825  -0.4953   1.5286   1.6894   2.0827   2.1864
     2.3985   2.4903   2.6902   2.8446   3.1746   3.2600   3.2751   3.3468
     3.3980   3.4555   3.4700   3.5918   3.7329   3.8202   3.8670   3.9210
     4.0225   4.0478   4.1328   4.2637   4.3043   4.4250   4.7731   4.8994
     5.0257   5.1240   5.1825   5.2071

     occupation numbers 
     1.0000   1.0000   1.0000   1.0000   1.0000   1.0000   1.0000   1.0000
     1.0000   1.0000   1.0000   1.0000   1.0000   1.0000   1.0000   1.0000
     1.0000   1.0000   1.0000   1.0000   1.0000   1.0000   1.0000   1.0000
     1.0000   1.0000   0.0000   0.0000   0.0000   0.0000   0.0000   0.0000
     0.0000   0.0000   0.0000   0.0000   0.0000   0.0000   0.0000   0.0000
     0.0000   0.0000   0.0000   0.0000   0.0000   0.0000   0.0000   0.0000
     0.0000   0.0000   0.0000   0.0000   0.0000   0.0000   0.0000   0.0000
     0.0000   0.0000   0.0000   0.0000

          k = 0.4950 0.0000 0.0000 (105588 PWs)   bands (ev):

   -20.4247 -20.3706 -19.3454 -19.2954 -17.6735 -17.6328 -14.9207 -14.8825
   -12.5744 -12.5279 -10.5265 -10.4390  -9.4685  -9.4511  -9.3513  -9.3395
    -8.9095  -8.8937  -8.2498  -8.1854  -8.1664  -8.1218  -7.0929  -7.0325
    -5.5677  -5.5301  -0.5612  -0.5176   1.5689   1.6493   2.1141   2.1684
     2.4131   2.4617   2.7276   2.8050   3.2135   3.2841   3.2980   3.3432
     3.3722   3.4251   3.4797   3.5530   3.7701   3.8297   3.9059   3.9203
     3.9842   3.9997   4.1686   4.2411   4.3229   4.3898   4.8051   4.8685
     5.0655   5.1459   5.1584   5.2173

     occupation numbers 
     1.0000   1.0000   1.0000   1.0000   1.0000   1.0000   1.0000   1.0000
     1.0000   1.0000   1.0000   1.0000   1.0000   1.0000   1.0000   1.0000
     1.0000   1.0000   1.0000   1.0000   1.0000   1.0000   1.0000   1.0000
     1.0000   1.0000   0.0000   0.0000   0.0000   0.0000   0.0000   0.0000
     0.0000   0.0000   0.0000   0.0000   0.0000   0.0000   0.0000   0.0000
     0.0000   0.0000   0.0000   0.0000   0.0000   0.0000   0.0000   0.0000
     0.0000   0.0000   0.0000   0.0000   0.0000   0.0000   0.0000   0.0000
     0.0000   0.0000   0.0000   0.0000

          k = 0.5000 0.0000 0.0000 (105568 PWs)   bands (ev):

   -20.3977 -20.3977 -19.3206 -19.3206 -17.6532 -17.6532 -14.9018 -14.9018
   -12.5512 -12.5512 -10.4824 -10.4824  -9.4490  -9.4490  -9.3552  -9.3552
    -8.9024  -8.9024  -8.2177  -8.2177  -8.1443  -8.1443  -7.0628  -7.0628
    -5.5489  -5.5489  -0.5395  -0.5395   1.6091   1.6091   2.1433   2.1433
     2.4353   2.4353   2.7660   2.7660   3.2516   3.2516   3.3359   3.3359
     3.3812   3.3812   3.5151   3.5151   3.8049   3.8049   3.9450   3.9450
     3.9546   3.9546   4.2054   4.2054   4.3553   4.3553   4.8370   4.8370
     5.1057   5.1057   5.1911   5.1911

     occupation numbers 
     1.0000   1.0000   1.0000   1.0000   1.0000   1.0000   1.0000   1.0000
     1.0000   1.0000   1.0000   1.0000   1.0000   1.0000   1.0000   1.0000
     1.0000   1.0000   1.0000   1.0000   1.0000   1.0000   1.0000   1.0000
     1.0000   1.0000   0.0000   0.0000   0.0000   0.0000   0.0000   0.0000
     0.0000   0.0000   0.0000   0.0000   0.0000   0.0000   0.0000   0.0000
     0.0000   0.0000   0.0000   0.0000   0.0000   0.0000   0.0000   0.0000
     0.0000   0.0000   0.0000   0.0000   0.0000   0.0000   0.0000   0.0000
     0.0000   0.0000   0.0000   0.0000

     highest occupied, lowest unoccupied level (ev):    -3.3858   -2.2722

     Writing output data file ./6AGNR.save/
 
     init_run     :      0.68s CPU      0.72s WALL (       1 calls)
     electrons    :   1111.08s CPU   1175.16s WALL (       1 calls)

     Called by init_run:
     wfcinit      :      0.00s CPU      0.00s WALL (       1 calls)
     wfcinit:atom :      0.36s CPU      0.38s WALL (     101 calls)
     wfcinit:wfcr :     17.42s CPU     19.10s WALL (     101 calls)
     potinit      :      0.05s CPU      0.08s WALL (       1 calls)
     hinit0       :      0.16s CPU      0.16s WALL (       1 calls)

     Called by electrons:
     c_bands      :   1111.08s CPU   1175.14s WALL (       1 calls)
     v_of_rho     :      0.03s CPU      0.04s WALL (       1 calls)
     v_h          :      0.00s CPU      0.00s WALL (       1 calls)
     v_xc         :      0.03s CPU      0.03s WALL (       1 calls)
     newd         :      0.03s CPU      0.03s WALL (       1 calls)

     Called by c_bands:
     init_us_2    :      0.38s CPU      0.38s WALL (     101 calls)
     cegterg      :   1090.83s CPU   1153.12s WALL (     494 calls)

     Called by sum_band:

     Called by *egterg:
     cdiaghg      :     99.48s CPU    100.80s WALL (    9218 calls)
     cegterg:over :     93.88s CPU     94.27s WALL (    9117 calls)
     cegterg:upda :     82.92s CPU     83.34s WALL (    9117 calls)
     cegterg:last :    235.64s CPU    236.81s WALL (    4329 calls)
     cdiaghg:chol :      4.68s CPU      4.73s WALL (    9218 calls)
     cdiaghg:inve :      3.31s CPU      3.35s WALL (    9218 calls)
     cdiaghg:para :      6.16s CPU      6.60s WALL (   18436 calls)
     h_psi        :    524.96s CPU    580.08s WALL (    9712 calls)
     s_psi        :     43.21s CPU     43.43s WALL (    9712 calls)
     g_psi        :      6.26s CPU      6.32s WALL (    9117 calls)

     Called by h_psi:
     h_psi:calbec :     43.65s CPU     44.31s WALL (    9712 calls)
     vloc_psi     :    430.57s CPU    482.96s WALL (    9712 calls)
     add_vuspsi   :     43.75s CPU     43.96s WALL (    9712 calls)

     General routines
     calbec       :     43.60s CPU     44.28s WALL (    9712 calls)
     fft          :      0.02s CPU      0.03s WALL (      11 calls)
     fftw         :    396.10s CPU    444.67s WALL (  455484 calls)
 
     Parallel routines
     fft_scatt_xy :     46.69s CPU     50.88s WALL (  455495 calls)
     fft_scatt_yz :    239.69s CPU    274.50s WALL (  455495 calls)
 
     PWSCF        :  18m37.64s CPU  21m58.08s WALL

 
   This run was terminated on:  11:14: 6  10Mar2022            

=------------------------------------------------------------------------------=
   JOB DONE.
=------------------------------------------------------------------------------=
