
     Program PWSCF v.6.7MaX starts on 10Mar2022 at 10:49: 8 

     This program is part of the open-source Quantum ESPRESSO suite
     for quantum simulation of materials; please cite
         "P. Giannozzi et al., J. Phys.:Condens. Matter 21 395502 (2009);
         "P. Giannozzi et al., J. Phys.:Condens. Matter 29 465901 (2017);
          URL http://www.quantum-espresso.org", 
     in publications or presentations arising from this work. More details at
     http://www.quantum-espresso.org/quote

     Parallel version (MPI), running on    30 processors

     MPI processes distributed on     1 nodes
     R & G space division:  proc/nbgrp/npool/nimage =      30
     Waiting for input...
     Reading input from standard input

     Current dimensions of program PWSCF are:
     Max number of different atomic species (ntypx) = 10
     Max number of k-points (npk) =  40000
     Max angular momentum in pseudopotentials (lmaxx) =  3
     file C.pbe-rrkjus.UPF: wavefunction(s)  2S 2P renormalized
     file H.pbe-rrkjus.UPF: wavefunction(s)  1S renormalized
     Message from routine set_cutoff:
     ecutrho < 4*ecutwfc, are you sure?

     Subspace diagonalization in iterative solution of the eigenvalue problem:
     one sub-group per band group will be used
     scalapack distributed-memory algorithm (size of sub-group:  5*  5 procs)

 
     Parallelization info
     --------------------
     sticks:   dense  smooth     PW     G-vecs:    dense   smooth      PW
     Min         185     185     66                18305    18305    3968
     Max         186     186     67                18310    18310    3977
     Sum        5565    5565   1999               549225   549225  119167
 


     bravais-lattice index     =            8
     lattice parameter (alat)  =       8.1351  a.u.
     unit-cell volume          =    7331.0274 (a.u.)^3
     number of atoms/cell      =           16
     number of atomic types    =            2
     number of electrons       =        52.00
     number of Kohn-Sham states=           26
     kinetic-energy cutoff     =      90.0000  Ry
     charge density cutoff     =     270.0000  Ry
     scf convergence threshold =      1.0E-08
     mixing beta               =       0.5000
     number of iterations used =            8  local-TF  mixing
     Exchange-correlation=  SLA  PW   PBE  PBE
                           (   1   4   3   4   0   0   0)

     celldm(1)=   8.135066  celldm(2)=   3.907754  celldm(3)=   3.484612
     celldm(4)=   0.000000  celldm(5)=   0.000000  celldm(6)=   0.000000

     crystal axes: (cart. coord. in units of alat)
               a(1) = (   1.000000   0.000000   0.000000 )  
               a(2) = (   0.000000   3.907754   0.000000 )  
               a(3) = (   0.000000   0.000000   3.484612 )  

     reciprocal axes: (cart. coord. in units 2 pi/alat)
               b(1) = (  1.000000  0.000000  0.000000 )  
               b(2) = (  0.000000  0.255901  0.000000 )  
               b(3) = (  0.000000  0.000000  0.286976 )  


     PseudoPot. # 1 for C  read from file:
     ../Pseudo/C.pbe-rrkjus.UPF
     MD5 check sum: 00fb224312de0c5b6853bd333518df6f
     Pseudo is Ultrasoft, Zval =  4.0
     Generated by new atomic code, or converted to UPF format
     Using radial grid of  627 points,  4 beta functions with: 
                l(1) =   0
                l(2) =   0
                l(3) =   1
                l(4) =   1
     Q(r) pseudized with 0 coefficients 


     PseudoPot. # 2 for H  read from file:
     ../Pseudo/H.pbe-rrkjus.UPF
     MD5 check sum: 7cc9d459525c9a0585f487a71c3c9563
     Pseudo is Ultrasoft, Zval =  1.0
     Generated by new atomic code, or converted to UPF format
     Using radial grid of 1061 points,  2 beta functions with: 
                l(1) =   0
                l(2) =   0
     Q(r) pseudized with 0 coefficients 


     atomic species   valence    mass     pseudopotential
        C              4.00    12.01070     C ( 1.00)
        H              1.00     1.00794     H ( 1.00)

      8 Sym. Ops., with inversion, found ( 4 have fractional translation)



   Cartesian axes

     site n.     atom                  positions (alat units)
         1           C   tau(   1) = (   0.6595826   1.2470267   1.7423060  )
         2           C   tau(   2) = (   0.8316583   1.5250783   1.7423060  )
         3           C   tau(   3) = (   0.3404174   1.2470267   1.7423060  )
         4           C   tau(   4) = (   0.6663068   1.8098538   1.7423060  )
         5           C   tau(   5) = (   0.8336932   2.0979003   1.7423060  )
         6           C   tau(   6) = (   0.1683417   1.5250783   1.7423060  )
         7           C   tau(   7) = (   0.3336932   1.8098538   1.7423060  )
         8           C   tau(   8) = (   0.6683417   2.3826757   1.7423060  )
         9           C   tau(   9) = (   0.8404174   2.6607274   1.7423060  )
        10           C   tau(  10) = (   0.1663068   2.0979003   1.7423060  )
        11           C   tau(  11) = (   0.3316583   2.3826757   1.7423060  )
        12           C   tau(  12) = (   0.1595826   2.6607274   1.7423060  )
        13           H   tau(  13) = (   0.7787232   1.0244895   1.7423060  )
        14           H   tau(  14) = (   0.2212768   1.0244895   1.7423060  )
        15           H   tau(  15) = (   0.7212768   2.8832645   1.7423060  )
        16           H   tau(  16) = (   0.2787232   2.8832645   1.7423060  )

     number of k points=    21
                       cart. coord. in units 2pi/alat
        k(    1) = (   0.0000000   0.0000000   0.0000000), wk =   0.0500000
        k(    2) = (   0.0250000   0.0000000   0.0000000), wk =   0.1000000
        k(    3) = (   0.0500000   0.0000000   0.0000000), wk =   0.1000000
        k(    4) = (   0.0750000   0.0000000   0.0000000), wk =   0.1000000
        k(    5) = (   0.1000000   0.0000000   0.0000000), wk =   0.1000000
        k(    6) = (   0.1250000   0.0000000   0.0000000), wk =   0.1000000
        k(    7) = (   0.1500000   0.0000000   0.0000000), wk =   0.1000000
        k(    8) = (   0.1750000   0.0000000   0.0000000), wk =   0.1000000
        k(    9) = (   0.2000000   0.0000000   0.0000000), wk =   0.1000000
        k(   10) = (   0.2250000   0.0000000   0.0000000), wk =   0.1000000
        k(   11) = (   0.2500000   0.0000000   0.0000000), wk =   0.1000000
        k(   12) = (   0.2750000   0.0000000   0.0000000), wk =   0.1000000
        k(   13) = (   0.3000000   0.0000000   0.0000000), wk =   0.1000000
        k(   14) = (   0.3250000   0.0000000   0.0000000), wk =   0.1000000
        k(   15) = (   0.3500000   0.0000000   0.0000000), wk =   0.1000000
        k(   16) = (   0.3750000   0.0000000   0.0000000), wk =   0.1000000
        k(   17) = (   0.4000000   0.0000000   0.0000000), wk =   0.1000000
        k(   18) = (   0.4250000   0.0000000   0.0000000), wk =   0.1000000
        k(   19) = (   0.4500000   0.0000000   0.0000000), wk =   0.1000000
        k(   20) = (   0.4750000   0.0000000   0.0000000), wk =   0.1000000
        k(   21) = (  -0.5000000   0.0000000   0.0000000), wk =   0.0500000

     Dense  grid:   549225 G-vectors     FFT dimensions: (  48, 180, 150)

     Estimated max dynamical RAM per process >      69.89 MB

     Estimated total dynamical RAM >       2.05 GB

     Initial potential from superposition of free atoms

     starting charge   51.61455, renormalised to   52.00000

     negative rho (up, down):  6.489E-04 0.000E+00
     Starting wfcs are   52 randomized atomic wfcs

     total cpu time spent up to now is        4.9 secs

     Self-consistent Calculation

     iteration #  1     ecut=    90.00 Ry     beta= 0.50
     Davidson diagonalization with overlap
     ethr =  1.00E-02,  avg # of iterations =  2.0

     total cpu time spent up to now is       13.9 secs

     total energy              =    -142.05005278 Ry
     estimated scf accuracy    <       4.28831060 Ry

     iteration #  2     ecut=    90.00 Ry     beta= 0.50
     Davidson diagonalization with overlap
     ethr =  8.25E-03,  avg # of iterations =  1.0

     negative rho (up, down):  3.147E-05 0.000E+00

     total cpu time spent up to now is       19.4 secs

     total energy              =    -140.96941795 Ry
     estimated scf accuracy    <       2.26430316 Ry

     iteration #  3     ecut=    90.00 Ry     beta= 0.50
     Davidson diagonalization with overlap
     ethr =  4.35E-03,  avg # of iterations =  3.7

     total cpu time spent up to now is       27.0 secs

     total energy              =    -141.45920829 Ry
     estimated scf accuracy    <       0.31207822 Ry

     iteration #  4     ecut=    90.00 Ry     beta= 0.50
     Davidson diagonalization with overlap
     ethr =  6.00E-04,  avg # of iterations =  2.0

     negative rho (up, down):  3.270E-04 0.000E+00

     total cpu time spent up to now is       33.4 secs

     total energy              =    -141.41040294 Ry
     estimated scf accuracy    <       0.17976719 Ry

     iteration #  5     ecut=    90.00 Ry     beta= 0.50
     Davidson diagonalization with overlap
     ethr =  3.46E-04,  avg # of iterations =  2.7

     negative rho (up, down):  3.762E-04 0.000E+00

     total cpu time spent up to now is       40.9 secs

     total energy              =    -141.42180704 Ry
     estimated scf accuracy    <       0.07579079 Ry

     iteration #  6     ecut=    90.00 Ry     beta= 0.50
     Davidson diagonalization with overlap
     ethr =  1.46E-04,  avg # of iterations =  1.1

     negative rho (up, down):  6.404E-02 0.000E+00

     total cpu time spent up to now is       47.3 secs

     total energy              =    -141.39752469 Ry
     estimated scf accuracy    <       0.06045495 Ry

     iteration #  7     ecut=    90.00 Ry     beta= 0.50
     Davidson diagonalization with overlap
     ethr =  1.16E-04,  avg # of iterations =  3.5

     negative rho (up, down):  7.794E-02 0.000E+00

     total cpu time spent up to now is       56.7 secs

     total energy              =    -141.40266469 Ry
     estimated scf accuracy    <       0.06431124 Ry

     iteration #  8     ecut=    90.00 Ry     beta= 0.50
     Davidson diagonalization with overlap
     ethr =  1.16E-04,  avg # of iterations =  1.0

     negative rho (up, down):  8.928E-02 0.000E+00

     total cpu time spent up to now is       63.0 secs

     total energy              =    -141.38531831 Ry
     estimated scf accuracy    <       0.03655118 Ry

     iteration #  9     ecut=    90.00 Ry     beta= 0.50
     Davidson diagonalization with overlap
     ethr =  7.03E-05,  avg # of iterations =  3.3

     negative rho (up, down):  6.011E-02 0.000E+00

     total cpu time spent up to now is       72.2 secs

     total energy              =    -141.39605591 Ry
     estimated scf accuracy    <       0.01151615 Ry

     iteration # 10     ecut=    90.00 Ry     beta= 0.50
     Davidson diagonalization with overlap
     ethr =  2.21E-05,  avg # of iterations =  1.2

     negative rho (up, down):  2.295E-02 0.000E+00

     total cpu time spent up to now is       79.4 secs

     total energy              =    -141.39220051 Ry
     estimated scf accuracy    <       0.00725177 Ry

     iteration # 11     ecut=    90.00 Ry     beta= 0.50
     Davidson diagonalization with overlap
     ethr =  1.39E-05,  avg # of iterations =  3.3

     negative rho (up, down):  1.387E-02 0.000E+00

     total cpu time spent up to now is       88.8 secs

     total energy              =    -141.39399862 Ry
     estimated scf accuracy    <       0.00068328 Ry

     iteration # 12     ecut=    90.00 Ry     beta= 0.50
     Davidson diagonalization with overlap
     ethr =  1.31E-06,  avg # of iterations =  3.8

     negative rho (up, down):  6.496E-03 0.000E+00

     total cpu time spent up to now is       97.8 secs

     total energy              =    -141.39405834 Ry
     estimated scf accuracy    <       0.00008134 Ry

     iteration # 13     ecut=    90.00 Ry     beta= 0.50
     Davidson diagonalization with overlap
     ethr =  1.56E-07,  avg # of iterations =  3.2

     negative rho (up, down):  3.841E-03 0.000E+00

     total cpu time spent up to now is      106.2 secs

     total energy              =    -141.39404371 Ry
     estimated scf accuracy    <       0.00003506 Ry

     iteration # 14     ecut=    90.00 Ry     beta= 0.50
     Davidson diagonalization with overlap
     ethr =  6.74E-08,  avg # of iterations =  3.6

     negative rho (up, down):  1.224E-03 0.000E+00

     total cpu time spent up to now is      117.9 secs

     total energy              =    -141.39405161 Ry
     estimated scf accuracy    <       0.00001360 Ry

     iteration # 15     ecut=    90.00 Ry     beta= 0.50
     Davidson diagonalization with overlap
     ethr =  2.62E-08,  avg # of iterations =  1.3

     negative rho (up, down):  9.233E-04 0.000E+00

     total cpu time spent up to now is      127.1 secs

     total energy              =    -141.39404672 Ry
     estimated scf accuracy    <       0.00001067 Ry

     iteration # 16     ecut=    90.00 Ry     beta= 0.50
     Davidson diagonalization with overlap
     ethr =  2.05E-08,  avg # of iterations =  1.8

     negative rho (up, down):  7.869E-04 0.000E+00

     total cpu time spent up to now is      134.9 secs

     total energy              =    -141.39404394 Ry
     estimated scf accuracy    <       0.00000380 Ry

     iteration # 17     ecut=    90.00 Ry     beta= 0.50
     Davidson diagonalization with overlap
     ethr =  7.30E-09,  avg # of iterations =  4.2

     negative rho (up, down):  5.858E-04 0.000E+00

     total cpu time spent up to now is      146.5 secs

     total energy              =    -141.39404532 Ry
     estimated scf accuracy    <       0.00000158 Ry

     iteration # 18     ecut=    90.00 Ry     beta= 0.50
     Davidson diagonalization with overlap
     ethr =  3.05E-09,  avg # of iterations =  2.0

     negative rho (up, down):  5.583E-04 0.000E+00

     total cpu time spent up to now is      155.5 secs

     total energy              =    -141.39404528 Ry
     estimated scf accuracy    <       0.00000046 Ry

     iteration # 19     ecut=    90.00 Ry     beta= 0.50
     Davidson diagonalization with overlap
     ethr =  8.88E-10,  avg # of iterations =  3.1

     negative rho (up, down):  5.516E-04 0.000E+00

     total cpu time spent up to now is      164.9 secs

     total energy              =    -141.39404534 Ry
     estimated scf accuracy    <       0.00000005 Ry

     iteration # 20     ecut=    90.00 Ry     beta= 0.50
     Davidson diagonalization with overlap
     ethr =  9.85E-11,  avg # of iterations =  3.9

     negative rho (up, down):  5.492E-04 0.000E+00

     total cpu time spent up to now is      173.2 secs

     End of self-consistent calculation

          k = 0.0000 0.0000 0.0000 (105735 PWs)   bands (ev):

   -21.8084 -20.7210 -18.9422 -16.8845 -16.7569 -15.7779 -15.5951 -15.3047
   -14.0789 -12.9535 -12.2386 -12.0228 -11.2274 -10.2999  -9.8914  -9.7287
    -9.4885  -8.6707  -8.0313  -7.6072  -6.7243  -6.4641  -6.1945  -4.7314
    -4.4238  -3.3860

          k = 0.0250 0.0000 0.0000 (105751 PWs)   bands (ev):

   -21.8048 -20.7176 -18.9391 -16.8983 -16.7959 -15.8543 -15.5364 -15.2335
   -14.1021 -12.9435 -12.2121 -12.0408 -11.2245 -10.2815  -9.8871  -9.7419
    -9.4842  -8.6666  -8.0247  -7.6184  -6.7211  -6.4708  -6.2025  -4.7567
    -4.4260  -3.4343

          k = 0.0500 0.0000 0.0000 (105771 PWs)   bands (ev):

   -21.7940 -20.7072 -18.9298 -16.9912 -16.8378 -16.0165 -15.3841 -15.0873
   -14.1675 -12.9143 -12.1368 -12.0910 -11.2157 -10.2293  -9.8742  -9.7802
    -9.4714  -8.6543  -8.0062  -7.6517  -6.7115  -6.4911  -6.2264  -4.8297
    -4.4330  -3.5600

          k = 0.0750 0.0000 0.0000 (105755 PWs)   bands (ev):

   -21.7760 -20.6898 -18.9144 -17.1643 -16.8430 -16.2055 -15.1771 -14.9256
   -14.2650 -12.8687 -12.1632 -12.0233 -11.2012 -10.1505  -9.8528  -9.8398
    -9.4500  -8.6338  -7.9793  -7.7054  -6.6954  -6.5262  -6.2657  -4.9438
    -4.4451  -3.7306

          k = 0.1000 0.0000 0.0000 (105765 PWs)   bands (ev):

   -21.7509 -20.6656 -18.8930 -17.3656 -16.8398 -16.4035 -14.9399 -14.7669
   -14.3834 -12.8148 -12.2405 -11.8836 -11.1808 -10.0540  -9.9150  -9.8228
    -9.4198  -8.6052  -7.9486  -7.7775  -6.6730  -6.5771  -6.3197  -5.0903
    -4.4627  -3.9243

          k = 0.1250 0.0000 0.0000 (105753 PWs)   bands (ev):

   -21.7186 -20.6345 -18.8658 -17.5772 -16.8346 -16.6044 -14.6855 -14.6181
   -14.5124 -12.7747 -12.2933 -11.7298 -11.1540  -9.9993  -9.9477  -9.7842
    -9.3811  -8.5685  -7.9192  -7.8654  -6.6454  -6.6444  -6.3872  -5.2609
    -4.4863  -4.1296

          k = 0.1500 0.0000 0.0000 (105743 PWs)   bands (ev):

   -21.6791 -20.5966 -18.8329 -17.7919 -16.8298 -16.8049 -14.6475 -14.4829
   -14.4172 -12.7849 -12.2788 -11.5752 -11.1177 -10.0852  -9.8383  -9.7372
    -9.3340  -8.5236  -7.9661  -7.8957  -6.7320  -6.6097  -6.4671  -5.4487
    -4.5161  -4.3403

          k = 0.1750 0.0000 0.0000 (105681 PWs)   bands (ev):

   -21.6325 -20.5519 -18.7947 -18.0061 -17.0032 -16.8274 -14.7775 -14.3634
   -14.1435 -12.8530 -12.1850 -11.4393 -11.0629 -10.1636  -9.7309  -9.6816
    -9.2796  -8.4707  -8.0765  -7.8821  -6.8376  -6.5691  -6.5580  -5.6480
    -4.5531  -4.5525

          k = 0.2000 0.0000 0.0000 (105691 PWs)   bands (ev):

   -21.5788 -20.5006 -18.7518 -18.2177 -17.1977 -16.8296 -14.9001 -14.2618
   -13.8641 -12.9492 -12.0380 -11.3501 -10.9736 -10.2235  -9.6291  -9.6176
    -9.2202  -8.4098  -8.1932  -7.8818  -6.9621  -6.6586  -6.5228  -5.8543
    -4.7655  -4.5957

          k = 0.2250 0.0000 0.0000 (105673 PWs)   bands (ev):

   -21.5180 -20.4427 -18.7052 -18.4254 -17.3867 -16.8389 -15.0102 -14.1816
   -13.5813 -13.0481 -11.8589 -11.3213 -10.8493 -10.2522  -9.5452  -9.5349
    -9.1598  -8.3411  -8.3115  -7.8972  -7.1052  -6.7675  -6.4714  -6.0644
    -4.9760  -4.6459

          k = 0.2500 0.0000 0.0000 (105681 PWs)   bands (ev):

   -21.4501 -20.3784 -18.6564 -18.6282 -17.5679 -16.8579 -15.1035 -14.1283
   -13.2970 -13.1327 -11.6587 -11.3418 -10.7138 -10.2367  -9.4644  -9.4508
    -9.1045  -8.4249  -8.2645  -7.9305  -7.2656  -6.8833  -6.4153  -6.2758
    -5.1831  -4.7032

          k = 0.2750 0.0000 0.0000 (105691 PWs)   bands (ev):

   -21.3752 -20.3081 -18.8254 -18.6090 -17.7376 -16.8892 -15.1766 -14.1092
   -13.1890 -13.0135 -11.4438 -11.3971 -10.5888 -10.1696  -9.3810  -9.3753
    -9.0620  -8.5229  -8.1803  -7.9827  -7.4415  -7.0047  -6.4864  -6.3557
    -5.3852  -4.7673

          k = 0.3000 0.0000 0.0000 (105686 PWs)   bands (ev):

   -21.2932 -20.2322 -19.0160 -18.5700 -17.8885 -16.9344 -15.2268 -14.1293
   -13.2077 -12.7344 -11.4739 -11.2186 -10.4792 -10.0573  -9.3382  -9.2780
    -9.0365  -8.5908  -8.0887  -8.0544  -7.6306  -7.1304  -6.6947  -6.2948
    -5.5796  -4.8379

          k = 0.3250 0.0000 0.0000 (105680 PWs)   bands (ev):

   -21.2044 -20.1519 -19.1987 -18.5547 -18.0050 -16.9940 -15.2531 -14.1861
   -13.1885 -12.4676 -11.5570 -10.9869 -10.3766  -9.9178  -9.3461  -9.1726
    -9.0154  -8.6199  -8.1457  -7.9902  -7.8296  -7.2591  -6.8991  -6.2394
    -5.7594  -4.9144

          k = 0.3500 0.0000 0.0000 (105706 PWs)   bands (ev):

   -21.1086 -20.0697 -19.3708 -18.5867 -18.0636 -17.0670 -15.2559 -14.2697
   -13.1385 -12.2360 -11.6182 -10.7519 -10.2713  -9.7682  -9.4170  -9.0591
    -8.9822  -8.6181  -8.2558  -8.0333  -7.8856  -7.3898  -7.0978  -6.2145
    -5.8993  -4.9963

          k = 0.3750 0.0000 0.0000 (105672 PWs)   bands (ev):

   -21.0061 -19.9937 -19.5242 -18.6726 -18.0576 -17.1515 -15.2370 -14.3697
   -13.0667 -12.1059 -11.5879 -10.5172 -10.1581  -9.6200  -9.5338  -8.9460
    -8.9377  -8.6022  -8.3833  -8.2311  -7.7785  -7.5211  -7.2871  -6.2812
    -5.9382  -5.0826

          k = 0.4000 0.0000 0.0000 (105610 PWs)   bands (ev):

   -20.8968 -19.9534 -19.6294 -18.7917 -18.0079 -17.2448 -15.1987 -14.4777
   -12.9798 -12.1218 -11.4206 -10.2889 -10.0344  -9.6744  -9.4808  -8.9291
    -8.8084  -8.6042  -8.5255  -8.3854  -7.6881  -7.6520  -7.4467  -6.4236
    -5.8921  -5.1726

          k = 0.4250 0.0000 0.0000 (105648 PWs)   bands (ev):

   -20.7810 -20.0062 -19.6289 -18.9239 -17.9345 -17.3441 -15.1437 -14.5882
   -12.8823 -12.2091 -11.1905 -10.0924  -9.8991  -9.8071  -9.3588  -8.9606
    -8.6914  -8.6769  -8.6716  -8.4067  -7.7812  -7.7322  -7.4590  -6.5855
    -5.8176  -5.2652

          k = 0.4500 0.0000 0.0000 (105644 PWs)   bands (ev):

   -20.6590 -20.1255 -19.5495 -19.0592 -17.8479 -17.4468 -15.0744 -14.6974
   -12.7771 -12.3185 -10.9477 -10.0984  -9.7614  -9.7517  -9.2704  -9.0702
    -8.8219  -8.7863  -8.5273  -8.3428  -7.9073  -7.8877  -7.3467  -6.7489
    -5.7325  -5.3595

          k = 0.4750 0.0000 0.0000 (105636 PWs)   bands (ev):

   -20.5310 -20.2612 -19.4416 -19.1924 -17.7532 -17.5506 -14.9931 -14.8028
   -12.6662 -12.4345 -10.7093 -10.2735  -9.5932  -9.5768  -9.2637  -9.2322
    -8.9113  -8.8514  -8.3759  -8.2508  -8.0542  -8.0291  -7.2101  -6.9088
    -5.6422  -5.4544

          k =-0.5000 0.0000 0.0000 (105568 PWs)   bands (ev):

   -20.3979 -20.3979 -19.3208 -19.3208 -17.6534 -17.6534 -14.9020 -14.9020
   -12.5514 -12.5514 -10.4826 -10.4826  -9.4491  -9.4491  -9.3554  -9.3554
    -8.9026  -8.9026  -8.2179  -8.2179  -8.1445  -8.1445  -7.0631  -7.0631
    -5.5491  -5.5491

     highest occupied level (ev):    -3.3860

!    total energy              =    -141.39404534 Ry
     estimated scf accuracy    <          2.2E-09 Ry

     The total energy is the sum of the following terms:
     one-electron contribution =    -979.66074853 Ry
     hartree contribution      =     496.77808574 Ry
     xc contribution           =     -44.85325164 Ry
     ewald contribution        =     386.34186909 Ry

     convergence has been achieved in  20 iterations

     Forces acting on atoms (cartesian axes, Ry/au):

     atom    1 type  1   force =     0.00030914   -0.00003498    0.00000000
     atom    2 type  1   force =     0.00019064    0.00055041    0.00000000
     atom    3 type  1   force =    -0.00030914   -0.00003498    0.00000000
     atom    4 type  1   force =    -0.00077446   -0.00020074    0.00000000
     atom    5 type  1   force =     0.00077446    0.00020074    0.00000000
     atom    6 type  1   force =    -0.00019064    0.00055041    0.00000000
     atom    7 type  1   force =     0.00077446   -0.00020074    0.00000000
     atom    8 type  1   force =    -0.00019064   -0.00055041    0.00000000
     atom    9 type  1   force =    -0.00030914    0.00003498    0.00000000
     atom   10 type  1   force =    -0.00077446    0.00020074    0.00000000
     atom   11 type  1   force =     0.00019064   -0.00055041    0.00000000
     atom   12 type  1   force =     0.00030914    0.00003498    0.00000000
     atom   13 type  2   force =    -0.00001135   -0.00066026    0.00000000
     atom   14 type  2   force =     0.00001135   -0.00066026    0.00000000
     atom   15 type  2   force =     0.00001135    0.00066026    0.00000000
     atom   16 type  2   force =    -0.00001135    0.00066026    0.00000000

     Total force =     0.002459     Total SCF correction =     0.000060


     Computing stress (Cartesian axis) and pressure

          total   stress  (Ry/bohr**3)                   (kbar)     P=        0.11
   0.00000113   0.00000000   0.00000000            0.17        0.00        0.00
   0.00000000   0.00000110   0.00000000            0.00        0.16        0.00
   0.00000000   0.00000000   0.00000008            0.00        0.00        0.01


     Writing output data file ./6AGNR.save/
 
     init_run     :      4.46s CPU      4.74s WALL (       1 calls)
     electrons    :    158.62s CPU    168.32s WALL (       1 calls)
     forces       :      0.98s CPU      1.02s WALL (       1 calls)
     stress       :      3.85s CPU      3.87s WALL (       1 calls)

     Called by init_run:
     wfcinit      :      3.68s CPU      3.93s WALL (       1 calls)
     potinit      :      0.18s CPU      0.18s WALL (       1 calls)
     hinit0       :      0.16s CPU      0.16s WALL (       1 calls)

     Called by electrons:
     c_bands      :    109.87s CPU    116.28s WALL (      20 calls)
     sum_band     :     16.76s CPU     18.05s WALL (      20 calls)
     v_of_rho     :      0.85s CPU      0.89s WALL (      21 calls)
     newd         :      0.56s CPU      0.57s WALL (      21 calls)
     mix_rho      :     30.61s CPU     32.52s WALL (      20 calls)

     Called by c_bands:
     init_us_2    :      3.22s CPU      3.24s WALL (     903 calls)
     cegterg      :    100.49s CPU    106.81s WALL (     420 calls)

     Called by *egterg:
     cdiaghg      :      7.90s CPU      7.94s WALL (    1504 calls)
     h_psi        :     67.12s CPU     73.49s WALL (    1525 calls)
     s_psi        :      5.85s CPU      5.87s WALL (    1525 calls)
     g_psi        :      0.54s CPU      0.55s WALL (    1084 calls)

     Called by h_psi:
     h_psi:calbec :      5.80s CPU      5.89s WALL (    1525 calls)
     vloc_psi     :     54.61s CPU     60.86s WALL (    1525 calls)
     add_vuspsi   :      5.91s CPU      5.94s WALL (    1525 calls)

     General routines
     calbec       :      8.29s CPU      8.38s WALL (    2050 calls)
     fft          :      0.58s CPU      0.62s WALL (     239 calls)
     ffts         :     15.44s CPU     17.26s WALL (    9077 calls)
     fftw         :     60.86s CPU     67.86s WALL (   67588 calls)
 
     Parallel routines
     fft_scatt_xy :      9.10s CPU      9.76s WALL (   76904 calls)
     fft_scatt_yz :     45.37s CPU     52.15s WALL (   76904 calls)
 
     PWSCF        :   2m48.56s CPU   2m59.68s WALL

 
   This run was terminated on:  10:52: 8  10Mar2022            

=------------------------------------------------------------------------------=
   JOB DONE.
=------------------------------------------------------------------------------=
