
     Program BANDS v.6.7MaX starts on 10Mar2022 at 11:14: 6 

     This program is part of the open-source Quantum ESPRESSO suite
     for quantum simulation of materials; please cite
         "P. Giannozzi et al., J. Phys.:Condens. Matter 21 395502 (2009);
         "P. Giannozzi et al., J. Phys.:Condens. Matter 29 465901 (2017);
          URL http://www.quantum-espresso.org", 
     in publications or presentations arising from this work. More details at
     http://www.quantum-espresso.org/quote

     Parallel version (MPI), running on    20 processors

     MPI processes distributed on     1 nodes
     R & G space division:  proc/nbgrp/npool/nimage =      20

     Reading xml data from directory:

     ./6AGNR.save/
     Message from routine qexsd_readschema :
     input info not found or not readable in xml file
     file C.pbe-rrkjus.UPF: wavefunction(s)  2S 2P renormalized
     file H.pbe-rrkjus.UPF: wavefunction(s)  1S renormalized

     IMPORTANT: XC functional enforced from input :
     Exchange-correlation= PBE
                           (   1   4   3   4   0   0   0)
     Any further DFT definition will be discarded
     Please, verify this is what you really want

 
     Parallelization info
     --------------------
     sticks:   dense  smooth     PW     G-vecs:    dense   smooth      PW
     Min         278     278     99                27460    27460    5955
     Max         279     279    100                27465    27465    5962
     Sum        5565    5565   1999               549225   549225  119167
 

     negative rho (up, down):  5.492E-04 0.000E+00
     Reading collected, re-writing distributed wavefunctions
     high-symmetry point:  0.0000 0.0000 0.0000   x coordinate   0.0000
     high-symmetry point:  0.5000 0.0000 0.0000   x coordinate   0.5000

     Plottable bands (eV) written to file 6AGNR.bands.gnu
     Bands written to file 6AGNR.bands

 **************************************************************************

                    xk=(   0.00000,   0.00000,   0.00000  )

     point group D_2h (mmm) 
     there are  8 classes
     the character table:

       E     C2    C2'   C2''  i     s_v   s_v'  s_v''
A_g    1.00  1.00  1.00  1.00  1.00  1.00  1.00  1.00
B_1g   1.00  1.00 -1.00 -1.00  1.00  1.00 -1.00 -1.00
B_2g   1.00 -1.00  1.00 -1.00  1.00 -1.00  1.00 -1.00
B_3g   1.00 -1.00 -1.00  1.00  1.00 -1.00 -1.00  1.00
A_u    1.00  1.00  1.00  1.00 -1.00 -1.00 -1.00 -1.00
B_1u   1.00  1.00 -1.00 -1.00 -1.00 -1.00  1.00  1.00
B_2u   1.00 -1.00  1.00 -1.00 -1.00  1.00 -1.00  1.00
B_3u   1.00 -1.00 -1.00  1.00 -1.00  1.00  1.00 -1.00

     the symmetry operations in each class and the name of the first element:

     E        1
                                                                 
     C2       2
                                                                 
     C2'      4
                                                                 
     C2''     3
                                                                 
     i        5
                                                                 
     s_v      6
                                                                 
     s_v'     8
                                                                 
     s_v''    7
                                                                 

     Band symmetry, D_2h (mmm)  point group:

     e(  1 -  1) =    -21.80819  eV     1   --> A_g            
     e(  2 -  2) =    -20.72079  eV     1   --> B_3u           
     e(  3 -  3) =    -18.94199  eV     1   --> A_g            
     e(  4 -  4) =    -16.88429  eV     1   --> B_3u           
     e(  5 -  5) =    -16.75678  eV     1   --> B_1g           
     e(  6 -  6) =    -15.77764  eV     1   --> B_2u           
     e(  7 -  7) =    -15.59495  eV     1   --> B_3u           
     e(  8 -  8) =    -15.30445  eV     1   --> A_g            
     e(  9 -  9) =    -14.07876  eV     1   --> B_1g           
     e( 10 - 10) =    -12.95327  eV     1   --> A_g            
     e( 11 - 11) =    -12.23837  eV     1   --> B_3u           
     e( 12 - 12) =    -12.02265  eV     1   --> B_2u           
     e( 13 - 13) =    -11.22725  eV     1   --> B_3u           
     e( 14 - 14) =    -10.29971  eV     1   --> A_g            
     e( 15 - 15) =     -9.89123  eV     1   --> B_1u           
     e( 16 - 16) =     -9.72850  eV     1   --> B_1g           
     e( 17 - 17) =     -9.48838  eV     1   --> A_g            
     e( 18 - 18) =     -8.67044  eV     1   --> B_2g           
     e( 19 - 19) =     -8.03104  eV     1   --> B_3u           
     e( 20 - 20) =     -7.60700  eV     1   --> B_2u           
     e( 21 - 21) =     -6.72419  eV     1   --> B_1u           
     e( 22 - 22) =     -6.46393  eV     1   --> A_g            
     e( 23 - 23) =     -6.19434  eV     1   --> B_1g           
     e( 24 - 24) =     -4.73124  eV     1   --> A_u            
     e( 25 - 25) =     -4.42364  eV     1   --> B_2g           
     e( 26 - 26) =     -3.38576  eV     1   --> B_3g           
     e( 27 - 27) =     -2.27222  eV     1   --> B_1u           
     e( 28 - 28) =     -1.25809  eV     1   --> B_2g           
     e( 29 - 29) =     -1.10558  eV     1   --> A_u            
     e( 30 - 30) =      0.25879  eV     1   --> A_g            
     e( 31 - 31) =      0.54201  eV     1   --> B_3u           
     e( 32 - 32) =      0.78365  eV     1   --> A_g            
     e( 33 - 33) =      1.16737  eV     1   --> B_1u           
     e( 34 - 34) =      1.33623  eV     1   --> A_g            
     e( 35 - 35) =      1.53416  eV     1   --> B_3u           
     e( 36 - 36) =      1.56363  eV     1   --> B_2g           
     e( 37 - 37) =      1.66718  eV     1   --> B_3g           
     e( 38 - 38) =      1.80680  eV     1   --> B_1u           
     e( 39 - 39) =      1.94172  eV     1   --> A_g            
     e( 40 - 40) =      2.22926  eV     1   --> B_3u           
     e( 41 - 41) =      2.43863  eV     1   --> A_g            
     e( 42 - 42) =      2.91532  eV     1   --> A_g            
     e( 43 - 43) =      2.92916  eV     1   --> B_1u           
     e( 44 - 44) =      3.22990  eV     1   --> B_2g           
     e( 45 - 45) =      3.23199  eV     1   --> B_3u           
     e( 46 - 46) =      3.41695  eV     1   --> B_1u           
     e( 47 - 47) =      3.52884  eV     1   --> A_g            
     e( 48 - 48) =      3.57068  eV     1   --> B_2g           
     e( 49 - 49) =      3.94123  eV     1   --> B_3u           
     e( 50 - 50) =      3.96240  eV     1   --> B_1u           
     e( 51 - 51) =      4.23255  eV     1   --> A_g            
     e( 52 - 52) =      4.56785  eV     1   --> B_3u           
     e( 53 - 53) =      4.67609  eV     1   --> A_g            
     e( 54 - 54) =      4.70815  eV     1   --> A_u            
     e( 55 - 55) =      4.97266  eV     1   --> A_g            
     e( 56 - 56) =      5.04904  eV     1   --> B_1u           
     e( 57 - 57) =      5.22738  eV     1   --> B_3u           
     e( 58 - 58) =      5.30981  eV     1   --> B_2g           
     e( 59 - 59) =      5.47262  eV     1   --> B_3u           
     e( 60 - 60) =      5.73141  eV     1   --> B_2g           

 **************************************************************************

 **************************************************************************

                    xk=(   0.00500,   0.00000,   0.00000  )

     point group C_2v (mm2) 
     there are  4 classes
     the character table:

       E     C2    s_v   s_v' 
A_1    1.00  1.00  1.00  1.00
A_2    1.00  1.00 -1.00 -1.00
B_1    1.00 -1.00  1.00 -1.00
B_2    1.00 -1.00 -1.00  1.00

     the symmetry operations in each class and the name of the first element:

     E        1
                                                                 
     C2       2
                                                                 
     s_v      4
                                                                 
     s_v'     3
                                                                 

     Band symmetry, C_2v (mm2)  point group:

     e(  1 -  1) =    -21.80805  eV     1   --> A_1  D_1  S_1  
     e(  2 -  2) =    -20.72065  eV     1   --> B_2  D_4  S_4  
     e(  3 -  3) =    -18.94186  eV     1   --> A_1  D_1  S_1  
     e(  4 -  4) =    -16.88468  eV     1   --> B_2  D_4  S_4  
     e(  5 -  5) =    -16.75860  eV     1   --> B_2  D_4  S_4  
     e(  6 -  6) =    -15.78115  eV     1   --> A_1  D_1  S_1  
     e(  7 -  7) =    -15.59250  eV     1   --> B_2  D_4  S_4  
     e(  8 -  8) =    -15.30116  eV     1   --> A_1  D_1  S_1  
     e(  9 -  9) =    -14.07970  eV     1   --> B_2  D_4  S_4  
     e( 10 - 10) =    -12.95287  eV     1   --> A_1  D_1  S_1  
     e( 11 - 11) =    -12.23730  eV     1   --> B_2  D_4  S_4  
     e( 12 - 12) =    -12.02338  eV     1   --> A_1  D_1  S_1  
     e( 13 - 13) =    -11.22713  eV     1   --> B_2  D_4  S_4  
     e( 14 - 14) =    -10.29897  eV     1   --> A_1  D_1  S_1  
     e( 15 - 15) =     -9.89106  eV     1   --> B_1  D_3  S_3  
     e( 16 - 16) =     -9.72903  eV     1   --> B_2  D_4  S_4  
     e( 17 - 17) =     -9.48821  eV     1   --> A_1  D_1  S_1  
     e( 18 - 18) =     -8.67028  eV     1   --> A_2  D_2  S_2  
     e( 19 - 19) =     -8.03078  eV     1   --> B_2  D_4  S_4  
     e( 20 - 20) =     -7.60745  eV     1   --> A_1  D_1  S_1  
     e( 21 - 21) =     -6.72406  eV     1   --> B_1  D_3  S_3  
     e( 22 - 22) =     -6.46420  eV     1   --> A_1  D_1  S_1  
     e( 23 - 23) =     -6.19466  eV     1   --> B_2  D_4  S_4  
     e( 24 - 24) =     -4.73226  eV     1   --> A_2  D_2  S_2  
     e( 25 - 25) =     -4.42373  eV     1   --> A_2  D_2  S_2  
     e( 26 - 26) =     -3.38778  eV     1   --> B_1  D_3  S_3  
     e( 27 - 27) =     -2.27021  eV     1   --> B_1  D_3  S_3  
     e( 28 - 28) =     -1.25691  eV     1   --> A_2  D_2  S_2  
     e( 29 - 29) =     -1.10567  eV     1   --> A_2  D_2  S_2  
     e( 30 - 30) =      0.25899  eV     1   --> A_1  D_1  S_1  
     e( 31 - 31) =      0.54220  eV     1   --> B_2  D_4  S_4  
     e( 32 - 32) =      0.78385  eV     1   --> A_1  D_1  S_1  
     e( 33 - 33) =      1.16756  eV     1   --> B_1  D_3  S_3  
     e( 34 - 34) =      1.33643  eV     1   --> A_1  D_1  S_1  
     e( 35 - 35) =      1.53435  eV     1   --> B_2  D_4  S_4  
     e( 36 - 36) =      1.56386  eV     1   --> A_2  D_2  S_2  
     e( 37 - 37) =      1.66676  eV     1   --> B_1  D_3  S_3  
     e( 38 - 38) =      1.80700  eV     1   --> B_1  D_3  S_3  
     e( 39 - 39) =      1.94192  eV     1   --> A_1  D_1  S_1  
     e( 40 - 40) =      2.22946  eV     1   --> B_2  D_4  S_4  
     e( 41 - 41) =      2.43882  eV     1   --> A_1  D_1  S_1  
     e( 42 - 42) =      2.91552  eV     1   --> A_1  D_1  S_1  
     e( 43 - 43) =      2.92942  eV     1   --> B_1  D_3  S_3  
     e( 44 - 44) =      3.23011  eV     1   --> A_2  D_2  S_2  
     e( 45 - 45) =      3.23219  eV     1   --> B_2  D_4  S_4  
     e( 46 - 46) =      3.41715  eV     1   --> B_1  D_3  S_3  
     e( 47 - 47) =      3.52904  eV     1   --> A_1  D_1  S_1  
     e( 48 - 48) =      3.57089  eV     1   --> A_2  D_2  S_2  
     e( 49 - 49) =      3.94144  eV     1   --> B_2  D_4  S_4  
     e( 50 - 50) =      3.96260  eV     1   --> B_1  D_3  S_3  
     e( 51 - 51) =      4.23274  eV     1   --> A_1  D_1  S_1  
     e( 52 - 52) =      4.56805  eV     1   --> B_2  D_4  S_4  
     e( 53 - 53) =      4.67628  eV     1   --> A_1  D_1  S_1  
     e( 54 - 54) =      4.70764  eV     1   --> A_2  D_2  S_2  
     e( 55 - 55) =      4.97267  eV     1   --> A_1  D_1  S_1  
     e( 56 - 56) =      5.04927  eV     1   --> B_1  D_3  S_3  
     e( 57 - 57) =      5.22758  eV     1   --> B_2  D_4  S_4  
     e( 58 - 58) =      5.31003  eV     1   --> A_2  D_2  S_2  
     e( 59 - 59) =      5.47280  eV     1   --> B_2  D_4  S_4  
     e( 60 - 60) =      5.73164  eV     1   --> A_2  D_2  S_2  

 **************************************************************************

 **************************************************************************

                    xk=(   0.01000,   0.00000,   0.00000  )

     Band symmetry, C_2v (mm2)  point group:

     e(  1 -  1) =    -21.80762  eV     1   --> A_1  D_1  S_1  
     e(  2 -  2) =    -20.72023  eV     1   --> B_2  D_4  S_4  
     e(  3 -  3) =    -18.94149  eV     1   --> A_1  D_1  S_1  
     e(  4 -  4) =    -16.88592  eV     1   --> B_2  D_4  S_4  
     e(  5 -  5) =    -16.76396  eV     1   --> B_2  D_4  S_4  
     e(  6 -  6) =    -15.79138  eV     1   --> A_1  D_1  S_1  
     e(  7 -  7) =    -15.58521  eV     1   --> B_2  D_4  S_4  
     e(  8 -  8) =    -15.29155  eV     1   --> A_1  D_1  S_1  
     e(  9 -  9) =    -14.08252  eV     1   --> B_2  D_4  S_4  
     e( 10 - 10) =    -12.95167  eV     1   --> A_1  D_1  S_1  
     e( 11 - 11) =    -12.23408  eV     1   --> B_2  D_4  S_4  
     e( 12 - 12) =    -12.02556  eV     1   --> A_1  D_1  S_1  
     e( 13 - 13) =    -11.22678  eV     1   --> B_2  D_4  S_4  
     e( 14 - 14) =    -10.29674  eV     1   --> A_1  D_1  S_1  
     e( 15 - 15) =     -9.89054  eV     1   --> B_1  D_3  S_3  
     e( 16 - 16) =     -9.73063  eV     1   --> B_2  D_4  S_4  
     e( 17 - 17) =     -9.48769  eV     1   --> A_1  D_1  S_1  
     e( 18 - 18) =     -8.66979  eV     1   --> A_2  D_2  S_2  
     e( 19 - 19) =     -8.02997  eV     1   --> B_2  D_4  S_4  
     e( 20 - 20) =     -7.60881  eV     1   --> A_1  D_1  S_1  
     e( 21 - 21) =     -6.72367  eV     1   --> B_1  D_3  S_3  
     e( 22 - 22) =     -6.46499  eV     1   --> A_1  D_1  S_1  
     e( 23 - 23) =     -6.19562  eV     1   --> B_2  D_4  S_4  
     e( 24 - 24) =     -4.73532  eV     1   --> A_2  D_2  S_2  
     e( 25 - 25) =     -4.42399  eV     1   --> A_2  D_2  S_2  
     e( 26 - 26) =     -3.39377  eV     1   --> B_1  D_3  S_3  
     e( 27 - 27) =     -2.26423  eV     1   --> B_1  D_3  S_3  
     e( 28 - 28) =     -1.25337  eV     1   --> A_2  D_2  S_2  
     e( 29 - 29) =     -1.10594  eV     1   --> A_2  D_2  S_2  
     e( 30 - 30) =      0.25957  eV     1   --> A_1  D_1  S_1  
     e( 31 - 31) =      0.54278  eV     1   --> B_2  D_4  S_4  
     e( 32 - 32) =      0.78444  eV     1   --> A_1  D_1  S_1  
     e( 33 - 33) =      1.16813  eV     1   --> B_1  D_3  S_3  
     e( 34 - 34) =      1.33703  eV     1   --> A_1  D_1  S_1  
     e( 35 - 35) =      1.53494  eV     1   --> B_2  D_4  S_4  
     e( 36 - 36) =      1.56453  eV     1   --> A_2  D_2  S_2  
     e( 37 - 37) =      1.66551  eV     1   --> B_1  D_3  S_3  
     e( 38 - 38) =      1.80762  eV     1   --> B_1  D_3  S_3  
     e( 39 - 39) =      1.94252  eV     1   --> A_1  D_1  S_1  
     e( 40 - 40) =      2.23005  eV     1   --> B_2  D_4  S_4  
     e( 41 - 41) =      2.43940  eV     1   --> A_1  D_1  S_1  
     e( 42 - 42) =      2.91610  eV     1   --> A_1  D_1  S_1  
     e( 43 - 43) =      2.93020  eV     1   --> B_1  D_3  S_3  
     e( 44 - 44) =      3.23074  eV     1   --> A_2  D_2  S_2  
     e( 45 - 45) =      3.23279  eV     1   --> B_2  D_4  S_4  
     e( 46 - 46) =      3.41776  eV     1   --> B_1  D_3  S_3  
     e( 47 - 47) =      3.52964  eV     1   --> A_1  D_1  S_1  
     e( 48 - 48) =      3.57150  eV     1   --> A_2  D_2  S_2  
     e( 49 - 49) =      3.94209  eV     1   --> B_2  D_4  S_4  
     e( 50 - 50) =      3.96320  eV     1   --> B_1  D_3  S_3  
     e( 51 - 51) =      4.23329  eV     1   --> A_1  D_1  S_1  
     e( 52 - 52) =      4.56864  eV     1   --> B_2  D_4  S_4  
     e( 53 - 53) =      4.67686  eV     1   --> A_1  D_1  S_1  
     e( 54 - 54) =      4.70614  eV     1   --> A_2  D_2  S_2  
     e( 55 - 55) =      4.97271  eV     1   --> A_1  D_1  S_1  
     e( 56 - 56) =      5.04997  eV     1   --> B_1  D_3  S_3  
     e( 57 - 57) =      5.22818  eV     1   --> B_2  D_4  S_4  
     e( 58 - 58) =      5.31070  eV     1   --> A_2  D_2  S_2  
     e( 59 - 59) =      5.47336  eV     1   --> B_2  D_4  S_4  
     e( 60 - 60) =      5.73236  eV     1   --> A_2  D_2  S_2  

 **************************************************************************

 **************************************************************************

                    xk=(   0.01500,   0.00000,   0.00000  )

     Band symmetry, C_2v (mm2)  point group:

     e(  1 -  1) =    -21.80690  eV     1   --> A_1  D_1  S_1  
     e(  2 -  2) =    -20.71954  eV     1   --> B_2  D_4  S_4  
     e(  3 -  3) =    -18.94087  eV     1   --> A_1  D_1  S_1  
     e(  4 -  4) =    -16.88823  eV     1   --> B_2  D_4  S_4  
     e(  5 -  5) =    -16.77245  eV     1   --> B_2  D_4  S_4  
     e(  6 -  6) =    -15.80760  eV     1   --> A_1  D_1  S_1  
     e(  7 -  7) =    -15.57322  eV     1   --> B_2  D_4  S_4  
     e(  8 -  8) =    -15.27638  eV     1   --> A_1  D_1  S_1  
     e(  9 -  9) =    -14.08719  eV     1   --> B_2  D_4  S_4  
     e( 10 - 10) =    -12.94968  eV     1   --> A_1  D_1  S_1  
     e( 11 - 11) =    -12.22874  eV     1   --> B_2  D_4  S_4  
     e( 12 - 12) =    -12.02918  eV     1   --> A_1  D_1  S_1  
     e( 13 - 13) =    -11.22619  eV     1   --> B_2  D_4  S_4  
     e( 14 - 14) =    -10.29304  eV     1   --> A_1  D_1  S_1  
     e( 15 - 15) =     -9.88969  eV     1   --> B_1  D_3  S_3  
     e( 16 - 16) =     -9.73330  eV     1   --> B_2  D_4  S_4  
     e( 17 - 17) =     -9.48684  eV     1   --> A_1  D_1  S_1  
     e( 18 - 18) =     -8.66897  eV     1   --> A_2  D_2  S_2  
     e( 19 - 19) =     -8.02864  eV     1   --> B_2  D_4  S_4  
     e( 20 - 20) =     -7.61106  eV     1   --> A_1  D_1  S_1  
     e( 21 - 21) =     -6.72303  eV     1   --> B_1  D_3  S_3  
     e( 22 - 22) =     -6.46633  eV     1   --> A_1  D_1  S_1  
     e( 23 - 23) =     -6.19723  eV     1   --> B_2  D_4  S_4  
     e( 24 - 24) =     -4.74039  eV     1   --> A_2  D_2  S_2  
     e( 25 - 25) =     -4.42444  eV     1   --> A_2  D_2  S_2  
     e( 26 - 26) =     -3.40362  eV     1   --> B_1  D_3  S_3  
     e( 27 - 27) =     -2.25441  eV     1   --> B_1  D_3  S_3  
     e( 28 - 28) =     -1.24749  eV     1   --> A_2  D_2  S_2  
     e( 29 - 29) =     -1.10640  eV     1   --> A_2  D_2  S_2  
     e( 30 - 30) =      0.26054  eV     1   --> A_1  D_1  S_1  
     e( 31 - 31) =      0.54374  eV     1   --> B_2  D_4  S_4  
     e( 32 - 32) =      0.78542  eV     1   --> A_1  D_1  S_1  
     e( 33 - 33) =      1.16908  eV     1   --> B_1  D_3  S_3  
     e( 34 - 34) =      1.33803  eV     1   --> A_1  D_1  S_1  
     e( 35 - 35) =      1.53593  eV     1   --> B_2  D_4  S_4  
     e( 36 - 36) =      1.56565  eV     1   --> A_2  D_2  S_2  
     e( 37 - 37) =      1.66343  eV     1   --> B_1  D_3  S_3  
     e( 38 - 38) =      1.80865  eV     1   --> B_1  D_3  S_3  
     e( 39 - 39) =      1.94352  eV     1   --> A_1  D_1  S_1  
     e( 40 - 40) =      2.23104  eV     1   --> B_2  D_4  S_4  
     e( 41 - 41) =      2.44036  eV     1   --> A_1  D_1  S_1  
     e( 42 - 42) =      2.91708  eV     1   --> A_1  D_1  S_1  
     e( 43 - 43) =      2.93150  eV     1   --> B_1  D_3  S_3  
     e( 44 - 44) =      3.23179  eV     1   --> A_2  D_2  S_2  
     e( 45 - 45) =      3.23380  eV     1   --> B_2  D_4  S_4  
     e( 46 - 46) =      3.41878  eV     1   --> B_1  D_3  S_3  
     e( 47 - 47) =      3.53064  eV     1   --> A_1  D_1  S_1  
     e( 48 - 48) =      3.57251  eV     1   --> A_2  D_2  S_2  
     e( 49 - 49) =      3.94316  eV     1   --> B_2  D_4  S_4  
     e( 50 - 50) =      3.96420  eV     1   --> B_1  D_3  S_3  
     e( 51 - 51) =      4.23422  eV     1   --> A_1  D_1  S_1  
     e( 52 - 52) =      4.56962  eV     1   --> B_2  D_4  S_4  
     e( 53 - 53) =      4.67783  eV     1   --> A_1  D_1  S_1  
     e( 54 - 54) =      4.70363  eV     1   --> A_2  D_2  S_2  
     e( 55 - 55) =      4.97278  eV     1   --> A_1  D_1  S_1  
     e( 56 - 56) =      5.05114  eV     1   --> B_1  D_3  S_3  
     e( 57 - 57) =      5.22917  eV     1   --> B_2  D_4  S_4  
     e( 58 - 58) =      5.31180  eV     1   --> A_2  D_2  S_2  
     e( 59 - 59) =      5.47429  eV     1   --> B_2  D_4  S_4  
     e( 60 - 60) =      5.73355  eV     1   --> A_2  D_2  S_2  

 **************************************************************************

 **************************************************************************

                    xk=(   0.02000,   0.00000,   0.00000  )

     Band symmetry, C_2v (mm2)  point group:

     e(  1 -  1) =    -21.80589  eV     1   --> A_1  D_1  S_1  
     e(  2 -  2) =    -20.71857  eV     1   --> B_2  D_4  S_4  
     e(  3 -  3) =    -18.94001  eV     1   --> A_1  D_1  S_1  
     e(  4 -  4) =    -16.89206  eV     1   --> B_2  D_4  S_4  
     e(  5 -  5) =    -16.78339  eV     1   --> B_2  D_4  S_4  
     e(  6 -  6) =    -15.82883  eV     1   --> A_1  D_1  S_1  
     e(  7 -  7) =    -15.55681  eV     1   --> B_2  D_4  S_4  
     e(  8 -  8) =    -15.25662  eV     1   --> A_1  D_1  S_1  
     e(  9 -  9) =    -14.09367  eV     1   --> B_2  D_4  S_4  
     e( 10 - 10) =    -12.94689  eV     1   --> A_1  D_1  S_1  
     e( 11 - 11) =    -12.22132  eV     1   --> B_2  D_4  S_4  
     e( 12 - 12) =    -12.03421  eV     1   --> A_1  D_1  S_1  
     e( 13 - 13) =    -11.22537  eV     1   --> B_2  D_4  S_4  
     e( 14 - 14) =    -10.28789  eV     1   --> A_1  D_1  S_1  
     e( 15 - 15) =     -9.88848  eV     1   --> B_1  D_3  S_3  
     e( 16 - 16) =     -9.73701  eV     1   --> B_2  D_4  S_4  
     e( 17 - 17) =     -9.48564  eV     1   --> A_1  D_1  S_1  
     e( 18 - 18) =     -8.66782  eV     1   --> A_2  D_2  S_2  
     e( 19 - 19) =     -8.02680  eV     1   --> B_2  D_4  S_4  
     e( 20 - 20) =     -7.61421  eV     1   --> A_1  D_1  S_1  
     e( 21 - 21) =     -6.72212  eV     1   --> B_1  D_3  S_3  
     e( 22 - 22) =     -6.46819  eV     1   --> A_1  D_1  S_1  
     e( 23 - 23) =     -6.19947  eV     1   --> B_2  D_4  S_4  
     e( 24 - 24) =     -4.74746  eV     1   --> A_2  D_2  S_2  
     e( 25 - 25) =     -4.42506  eV     1   --> A_2  D_2  S_2  
     e( 26 - 26) =     -3.41714  eV     1   --> B_1  D_3  S_3  
     e( 27 - 27) =     -2.24093  eV     1   --> B_1  D_3  S_3  
     e( 28 - 28) =     -1.23928  eV     1   --> A_2  D_2  S_2  
     e( 29 - 29) =     -1.10703  eV     1   --> A_2  D_2  S_2  
     e( 30 - 30) =      0.26189  eV     1   --> A_1  D_1  S_1  
     e( 31 - 31) =      0.54509  eV     1   --> B_2  D_4  S_4  
     e( 32 - 32) =      0.78680  eV     1   --> A_1  D_1  S_1  
     e( 33 - 33) =      1.17041  eV     1   --> B_1  D_3  S_3  
     e( 34 - 34) =      1.33944  eV     1   --> A_1  D_1  S_1  
     e( 35 - 35) =      1.53731  eV     1   --> B_2  D_4  S_4  
     e( 36 - 36) =      1.56722  eV     1   --> A_2  D_2  S_2  
     e( 37 - 37) =      1.66053  eV     1   --> B_1  D_3  S_3  
     e( 38 - 38) =      1.81010  eV     1   --> B_1  D_3  S_3  
     e( 39 - 39) =      1.94492  eV     1   --> A_1  D_1  S_1  
     e( 40 - 40) =      2.23243  eV     1   --> B_2  D_4  S_4  
     e( 41 - 41) =      2.44170  eV     1   --> A_1  D_1  S_1  
     e( 42 - 42) =      2.91844  eV     1   --> A_1  D_1  S_1  
     e( 43 - 43) =      2.93332  eV     1   --> B_1  D_3  S_3  
     e( 44 - 44) =      3.23326  eV     1   --> A_2  D_2  S_2  
     e( 45 - 45) =      3.23520  eV     1   --> B_2  D_4  S_4  
     e( 46 - 46) =      3.42020  eV     1   --> B_1  D_3  S_3  
     e( 47 - 47) =      3.53205  eV     1   --> A_1  D_1  S_1  
     e( 48 - 48) =      3.57393  eV     1   --> A_2  D_2  S_2  
     e( 49 - 49) =      3.94465  eV     1   --> B_2  D_4  S_4  
     e( 50 - 50) =      3.96559  eV     1   --> B_1  D_3  S_3  
     e( 51 - 51) =      4.23552  eV     1   --> A_1  D_1  S_1  
     e( 52 - 52) =      4.57098  eV     1   --> B_2  D_4  S_4  
     e( 53 - 53) =      4.67919  eV     1   --> A_1  D_1  S_1  
     e( 54 - 54) =      4.70013  eV     1   --> A_2  D_2  S_2  
     e( 55 - 55) =      4.97289  eV     1   --> A_1  D_1  S_1  
     e( 56 - 56) =      5.05278  eV     1   --> B_1  D_3  S_3  
     e( 57 - 57) =      5.23056  eV     1   --> B_2  D_4  S_4  
     e( 58 - 58) =      5.31335  eV     1   --> A_2  D_2  S_2  
     e( 59 - 59) =      5.47558  eV     1   --> B_2  D_4  S_4  
     e( 60 - 60) =      5.73521  eV     1   --> A_2  D_2  S_2  

 **************************************************************************

 **************************************************************************

                    xk=(   0.02500,   0.00000,   0.00000  )

     Band symmetry, C_2v (mm2)  point group:

     e(  1 -  1) =    -21.80460  eV     1   --> A_1  D_1  S_1  
     e(  2 -  2) =    -20.71732  eV     1   --> B_2  D_4  S_4  
     e(  3 -  3) =    -18.93889  eV     1   --> A_1  D_1  S_1  
     e(  4 -  4) =    -16.89814  eV     1   --> B_2  D_4  S_4  
     e(  5 -  5) =    -16.79574  eV     1   --> B_2  D_4  S_4  
     e(  6 -  6) =    -15.85409  eV     1   --> A_1  D_1  S_1  
     e(  7 -  7) =    -15.53626  eV     1   --> B_2  D_4  S_4  
     e(  8 -  8) =    -15.23325  eV     1   --> A_1  D_1  S_1  
     e(  9 -  9) =    -14.10193  eV     1   --> B_2  D_4  S_4  
     e( 10 - 10) =    -12.94331  eV     1   --> A_1  D_1  S_1  
     e( 11 - 11) =    -12.21186  eV     1   --> B_2  D_4  S_4  
     e( 12 - 12) =    -12.04060  eV     1   --> A_1  D_1  S_1  
     e( 13 - 13) =    -11.22432  eV     1   --> B_2  D_4  S_4  
     e( 14 - 14) =    -10.28133  eV     1   --> A_1  D_1  S_1  
     e( 15 - 15) =     -9.88694  eV     1   --> B_1  D_3  S_3  
     e( 16 - 16) =     -9.74175  eV     1   --> B_2  D_4  S_4  
     e( 17 - 17) =     -9.48411  eV     1   --> A_1  D_1  S_1  
     e( 18 - 18) =     -8.66635  eV     1   --> A_2  D_2  S_2  
     e( 19 - 19) =     -8.02445  eV     1   --> B_2  D_4  S_4  
     e( 20 - 20) =     -7.61824  eV     1   --> A_1  D_1  S_1  
     e( 21 - 21) =     -6.72096  eV     1   --> B_1  D_3  S_3  
     e( 22 - 22) =     -6.47060  eV     1   --> A_1  D_1  S_1  
     e( 23 - 23) =     -6.20236  eV     1   --> B_2  D_4  S_4  
     e( 24 - 24) =     -4.75649  eV     1   --> A_2  D_2  S_2  
     e( 25 - 25) =     -4.42587  eV     1   --> A_2  D_2  S_2  
     e( 26 - 26) =     -3.43406  eV     1   --> B_1  D_3  S_3  
     e( 27 - 27) =     -2.22406  eV     1   --> B_1  D_3  S_3  
     e( 28 - 28) =     -1.22878  eV     1   --> A_2  D_2  S_2  
     e( 29 - 29) =     -1.10784  eV     1   --> A_2  D_2  S_2  
     e( 30 - 30) =      0.26363  eV     1   --> A_1  D_1  S_1  
     e( 31 - 31) =      0.54682  eV     1   --> B_2  D_4  S_4  
     e( 32 - 32) =      0.78857  eV     1   --> A_1  D_1  S_1  
     e( 33 - 33) =      1.17211  eV     1   --> B_1  D_3  S_3  
     e( 34 - 34) =      1.34124  eV     1   --> A_1  D_1  S_1  
     e( 35 - 35) =      1.53909  eV     1   --> B_2  D_4  S_4  
     e( 36 - 36) =      1.56923  eV     1   --> A_2  D_2  S_2  
     e( 37 - 37) =      1.65682  eV     1   --> B_1  D_3  S_3  
     e( 38 - 38) =      1.81195  eV     1   --> B_1  D_3  S_3  
     e( 39 - 39) =      1.94672  eV     1   --> A_1  D_1  S_1  
     e( 40 - 40) =      2.23421  eV     1   --> B_2  D_4  S_4  
     e( 41 - 41) =      2.44343  eV     1   --> A_1  D_1  S_1  
     e( 42 - 42) =      2.92020  eV     1   --> A_1  D_1  S_1  
     e( 43 - 43) =      2.93565  eV     1   --> B_1  D_3  S_3  
     e( 44 - 44) =      3.23515  eV     1   --> A_2  D_2  S_2  
     e( 45 - 45) =      3.23701  eV     1   --> B_2  D_4  S_4  
     e( 46 - 46) =      3.42203  eV     1   --> B_1  D_3  S_3  
     e( 47 - 47) =      3.53385  eV     1   --> A_1  D_1  S_1  
     e( 48 - 48) =      3.57576  eV     1   --> A_2  D_2  S_2  
     e( 49 - 49) =      3.94658  eV     1   --> B_2  D_4  S_4  
     e( 50 - 50) =      3.96739  eV     1   --> B_1  D_3  S_3  
     e( 51 - 51) =      4.23718  eV     1   --> A_1  D_1  S_1  
     e( 52 - 52) =      4.57273  eV     1   --> B_2  D_4  S_4  
     e( 53 - 53) =      4.68094  eV     1   --> A_1  D_1  S_1  
     e( 54 - 54) =      4.69564  eV     1   --> A_2  D_2  S_2  
     e( 55 - 55) =      4.97303  eV     1   --> A_1  D_1  S_1  
     e( 56 - 56) =      5.05488  eV     1   --> B_1  D_3  S_3  
     e( 57 - 57) =      5.23232  eV     1   --> B_2  D_4  S_4  
     e( 58 - 58) =      5.31534  eV     1   --> A_2  D_2  S_2  
     e( 59 - 59) =      5.47725  eV     1   --> B_2  D_4  S_4  
     e( 60 - 60) =      5.73735  eV     1   --> A_2  D_2  S_2  

 **************************************************************************

 **************************************************************************

                    xk=(   0.03000,   0.00000,   0.00000  )

     Band symmetry, C_2v (mm2)  point group:

     e(  1 -  1) =    -21.80302  eV     1   --> A_1  D_1  S_1  
     e(  2 -  2) =    -20.71579  eV     1   --> B_2  D_4  S_4  
     e(  3 -  3) =    -18.93753  eV     1   --> A_1  D_1  S_1  
     e(  4 -  4) =    -16.90750  eV     1   --> B_2  D_4  S_4  
     e(  5 -  5) =    -16.80811  eV     1   --> B_2  D_4  S_4  
     e(  6 -  6) =    -15.88253  eV     1   --> A_1  D_1  S_1  
     e(  7 -  7) =    -15.51194  eV     1   --> B_2  D_4  S_4  
     e(  8 -  8) =    -15.20713  eV     1   --> A_1  D_1  S_1  
     e(  9 -  9) =    -14.11189  eV     1   --> B_2  D_4  S_4  
     e( 10 - 10) =    -12.93896  eV     1   --> A_1  D_1  S_1  
     e( 11 - 11) =    -12.20044  eV     1   --> B_2  D_4  S_4  
     e( 12 - 12) =    -12.04830  eV     1   --> A_1  D_1  S_1  
     e( 13 - 13) =    -11.22303  eV     1   --> B_2  D_4  S_4  
     e( 14 - 14) =    -10.27340  eV     1   --> A_1  D_1  S_1  
     e( 15 - 15) =     -9.88505  eV     1   --> B_1  D_3  S_3  
     e( 16 - 16) =     -9.74750  eV     1   --> B_2  D_4  S_4  
     e( 17 - 17) =     -9.48223  eV     1   --> A_1  D_1  S_1  
     e( 18 - 18) =     -8.66454  eV     1   --> A_2  D_2  S_2  
     e( 19 - 19) =     -8.02161  eV     1   --> B_2  D_4  S_4  
     e( 20 - 20) =     -7.62316  eV     1   --> A_1  D_1  S_1  
     e( 21 - 21) =     -6.71954  eV     1   --> B_1  D_3  S_3  
     e( 22 - 22) =     -6.47356  eV     1   --> A_1  D_1  S_1  
     e( 23 - 23) =     -6.20588  eV     1   --> B_2  D_4  S_4  
     e( 24 - 24) =     -4.76745  eV     1   --> A_2  D_2  S_2  
     e( 25 - 25) =     -4.42687  eV     1   --> A_2  D_2  S_2  
     e( 26 - 26) =     -3.45411  eV     1   --> B_1  D_3  S_3  
     e( 27 - 27) =     -2.20407  eV     1   --> B_1  D_3  S_3  
     e( 28 - 28) =     -1.21603  eV     1   --> A_2  D_2  S_2  
     e( 29 - 29) =     -1.10882  eV     1   --> A_2  D_2  S_2  
     e( 30 - 30) =      0.26576  eV     1   --> A_1  D_1  S_1  
     e( 31 - 31) =      0.54894  eV     1   --> B_2  D_4  S_4  
     e( 32 - 32) =      0.79073  eV     1   --> A_1  D_1  S_1  
     e( 33 - 33) =      1.17418  eV     1   --> B_1  D_3  S_3  
     e( 34 - 34) =      1.34345  eV     1   --> A_1  D_1  S_1  
     e( 35 - 35) =      1.54126  eV     1   --> B_2  D_4  S_4  
     e( 36 - 36) =      1.57169  eV     1   --> A_2  D_2  S_2  
     e( 37 - 37) =      1.65230  eV     1   --> B_1  D_3  S_3  
     e( 38 - 38) =      1.81421  eV     1   --> B_1  D_3  S_3  
     e( 39 - 39) =      1.94891  eV     1   --> A_1  D_1  S_1  
     e( 40 - 40) =      2.23639  eV     1   --> B_2  D_4  S_4  
     e( 41 - 41) =      2.44554  eV     1   --> A_1  D_1  S_1  
     e( 42 - 42) =      2.92235  eV     1   --> A_1  D_1  S_1  
     e( 43 - 43) =      2.93850  eV     1   --> B_1  D_3  S_3  
     e( 44 - 44) =      3.23746  eV     1   --> A_2  D_2  S_2  
     e( 45 - 45) =      3.23922  eV     1   --> B_2  D_4  S_4  
     e( 46 - 46) =      3.42426  eV     1   --> B_1  D_3  S_3  
     e( 47 - 47) =      3.53606  eV     1   --> A_1  D_1  S_1  
     e( 48 - 48) =      3.57799  eV     1   --> A_2  D_2  S_2  
     e( 49 - 49) =      3.94892  eV     1   --> B_2  D_4  S_4  
     e( 50 - 50) =      3.96959  eV     1   --> B_1  D_3  S_3  
     e( 51 - 51) =      4.23922  eV     1   --> A_1  D_1  S_1  
     e( 52 - 52) =      4.57484  eV     1   --> B_2  D_4  S_4  
     e( 53 - 53) =      4.68307  eV     1   --> A_1  D_1  S_1  
     e( 54 - 54) =      4.69016  eV     1   --> A_2  D_2  S_2  
     e( 55 - 55) =      4.97322  eV     1   --> A_1  D_1  S_1  
     e( 56 - 56) =      5.05745  eV     1   --> B_1  D_3  S_3  
     e( 57 - 57) =      5.23445  eV     1   --> B_2  D_4  S_4  
     e( 58 - 58) =      5.31776  eV     1   --> A_2  D_2  S_2  
     e( 59 - 59) =      5.47928  eV     1   --> B_2  D_4  S_4  
     e( 60 - 60) =      5.73997  eV     1   --> A_2  D_2  S_2  

 **************************************************************************

 **************************************************************************

                    xk=(   0.03500,   0.00000,   0.00000  )

     Band symmetry, C_2v (mm2)  point group:

     e(  1 -  1) =    -21.80115  eV     1   --> A_1  D_1  S_1  
     e(  2 -  2) =    -20.71399  eV     1   --> B_2  D_4  S_4  
     e(  3 -  3) =    -18.93593  eV     1   --> A_1  D_1  S_1  
     e(  4 -  4) =    -16.92126  eV     1   --> B_2  D_4  S_4  
     e(  5 -  5) =    -16.81903  eV     1   --> B_2  D_4  S_4  
     e(  6 -  6) =    -15.91345  eV     1   --> A_1  D_1  S_1  
     e(  7 -  7) =    -15.48421  eV     1   --> B_2  D_4  S_4  
     e(  8 -  8) =    -15.17897  eV     1   --> A_1  D_1  S_1  
     e(  9 -  9) =    -14.12349  eV     1   --> B_2  D_4  S_4  
     e( 10 - 10) =    -12.93385  eV     1   --> A_1  D_1  S_1  
     e( 11 - 11) =    -12.18712  eV     1   --> B_2  D_4  S_4  
     e( 12 - 12) =    -12.05725  eV     1   --> A_1  D_1  S_1  
     e( 13 - 13) =    -11.22151  eV     1   --> B_2  D_4  S_4  
     e( 14 - 14) =    -10.26416  eV     1   --> A_1  D_1  S_1  
     e( 15 - 15) =     -9.88282  eV     1   --> B_1  D_3  S_3  
     e( 16 - 16) =     -9.75424  eV     1   --> B_2  D_4  S_4  
     e( 17 - 17) =     -9.48000  eV     1   --> A_1  D_1  S_1  
     e( 18 - 18) =     -8.66241  eV     1   --> A_2  D_2  S_2  
     e( 19 - 19) =     -8.01832  eV     1   --> B_2  D_4  S_4  
     e( 20 - 20) =     -7.62895  eV     1   --> A_1  D_1  S_1  
     e( 21 - 21) =     -6.71786  eV     1   --> B_1  D_3  S_3  
     e( 22 - 22) =     -6.47706  eV     1   --> A_1  D_1  S_1  
     e( 23 - 23) =     -6.21004  eV     1   --> B_2  D_4  S_4  
     e( 24 - 24) =     -4.78030  eV     1   --> A_2  D_2  S_2  
     e( 25 - 25) =     -4.42806  eV     1   --> A_2  D_2  S_2  
     e( 26 - 26) =     -3.47700  eV     1   --> B_1  D_3  S_3  
     e( 27 - 27) =     -2.18125  eV     1   --> B_1  D_3  S_3  
     e( 28 - 28) =     -1.20106  eV     1   --> A_2  D_2  S_2  
     e( 29 - 29) =     -1.10996  eV     1   --> A_2  D_2  S_2  
     e( 30 - 30) =      0.26828  eV     1   --> A_1  D_1  S_1  
     e( 31 - 31) =      0.55144  eV     1   --> B_2  D_4  S_4  
     e( 32 - 32) =      0.79329  eV     1   --> A_1  D_1  S_1  
     e( 33 - 33) =      1.17662  eV     1   --> B_1  D_3  S_3  
     e( 34 - 34) =      1.34606  eV     1   --> A_1  D_1  S_1  
     e( 35 - 35) =      1.54382  eV     1   --> B_2  D_4  S_4  
     e( 36 - 36) =      1.57460  eV     1   --> A_2  D_2  S_2  
     e( 37 - 37) =      1.64700  eV     1   --> B_1  D_3  S_3  
     e( 38 - 38) =      1.81688  eV     1   --> B_1  D_3  S_3  
     e( 39 - 39) =      1.95151  eV     1   --> A_1  D_1  S_1  
     e( 40 - 40) =      2.23897  eV     1   --> B_2  D_4  S_4  
     e( 41 - 41) =      2.44804  eV     1   --> A_1  D_1  S_1  
     e( 42 - 42) =      2.92489  eV     1   --> A_1  D_1  S_1  
     e( 43 - 43) =      2.94186  eV     1   --> B_1  D_3  S_3  
     e( 44 - 44) =      3.24019  eV     1   --> A_2  D_2  S_2  
     e( 45 - 45) =      3.24183  eV     1   --> B_2  D_4  S_4  
     e( 46 - 46) =      3.42690  eV     1   --> B_1  D_3  S_3  
     e( 47 - 47) =      3.53867  eV     1   --> A_1  D_1  S_1  
     e( 48 - 48) =      3.58062  eV     1   --> A_2  D_2  S_2  
     e( 49 - 49) =      3.95168  eV     1   --> B_2  D_4  S_4  
     e( 50 - 50) =      3.97218  eV     1   --> B_1  D_3  S_3  
     e( 51 - 51) =      4.24163  eV     1   --> A_1  D_1  S_1  
     e( 52 - 52) =      4.57732  eV     1   --> B_2  D_4  S_4  
     e( 53 - 53) =      4.68372  eV     1   --> A_2  D_2  S_2  
     e( 54 - 54) =      4.68559  eV     1   --> A_1  D_1  S_1  
     e( 55 - 55) =      4.97347  eV     1   --> A_1  D_1  S_1  
     e( 56 - 56) =      5.06049  eV     1   --> B_1  D_3  S_3  
     e( 57 - 57) =      5.23693  eV     1   --> B_2  D_4  S_4  
     e( 58 - 58) =      5.32062  eV     1   --> A_2  D_2  S_2  
     e( 59 - 59) =      5.48169  eV     1   --> B_2  D_4  S_4  
     e( 60 - 60) =      5.74305  eV     1   --> A_2  D_2  S_2  

 **************************************************************************

 **************************************************************************

                    xk=(   0.04000,   0.00000,   0.00000  )

     Band symmetry, C_2v (mm2)  point group:

     e(  1 -  1) =    -21.79899  eV     1   --> A_1  D_1  S_1  
     e(  2 -  2) =    -20.71191  eV     1   --> B_2  D_4  S_4  
     e(  3 -  3) =    -18.93408  eV     1   --> A_1  D_1  S_1  
     e(  4 -  4) =    -16.94001  eV     1   --> B_2  D_4  S_4  
     e(  5 -  5) =    -16.82756  eV     1   --> B_2  D_4  S_4  
     e(  6 -  6) =    -15.94630  eV     1   --> A_1  D_1  S_1  
     e(  7 -  7) =    -15.45342  eV     1   --> B_2  D_4  S_4  
     e(  8 -  8) =    -15.14931  eV     1   --> A_1  D_1  S_1  
     e(  9 -  9) =    -14.13664  eV     1   --> B_2  D_4  S_4  
     e( 10 - 10) =    -12.92799  eV     1   --> A_1  D_1  S_1  
     e( 11 - 11) =    -12.17198  eV     1   --> B_2  D_4  S_4  
     e( 12 - 12) =    -12.06737  eV     1   --> A_1  D_1  S_1  
     e( 13 - 13) =    -11.21975  eV     1   --> B_2  D_4  S_4  
     e( 14 - 14) =    -10.25365  eV     1   --> A_1  D_1  S_1  
     e( 15 - 15) =     -9.88024  eV     1   --> B_1  D_3  S_3  
     e( 16 - 16) =     -9.76194  eV     1   --> B_2  D_4  S_4  
     e( 17 - 17) =     -9.47744  eV     1   --> A_1  D_1  S_1  
     e( 18 - 18) =     -8.65996  eV     1   --> A_2  D_2  S_2  
     e( 19 - 19) =     -8.01459  eV     1   --> B_2  D_4  S_4  
     e( 20 - 20) =     -7.63560  eV     1   --> A_1  D_1  S_1  
     e( 21 - 21) =     -6.71593  eV     1   --> B_1  D_3  S_3  
     e( 22 - 22) =     -6.48113  eV     1   --> A_1  D_1  S_1  
     e( 23 - 23) =     -6.21482  eV     1   --> B_2  D_4  S_4  
     e( 24 - 24) =     -4.79496  eV     1   --> A_2  D_2  S_2  
     e( 25 - 25) =     -4.42945  eV     1   --> A_2  D_2  S_2  
     e( 26 - 26) =     -3.50242  eV     1   --> B_1  D_3  S_3  
     e( 27 - 27) =     -2.15591  eV     1   --> B_1  D_3  S_3  
     e( 28 - 28) =     -1.18393  eV     1   --> A_2  D_2  S_2  
     e( 29 - 29) =     -1.11126  eV     1   --> A_2  D_2  S_2  
     e( 30 - 30) =      0.27119  eV     1   --> A_1  D_1  S_1  
     e( 31 - 31) =      0.55432  eV     1   --> B_2  D_4  S_4  
     e( 32 - 32) =      0.79624  eV     1   --> A_1  D_1  S_1  
     e( 33 - 33) =      1.17942  eV     1   --> B_1  D_3  S_3  
     e( 34 - 34) =      1.34906  eV     1   --> A_1  D_1  S_1  
     e( 35 - 35) =      1.54678  eV     1   --> B_2  D_4  S_4  
     e( 36 - 36) =      1.57796  eV     1   --> A_2  D_2  S_2  
     e( 37 - 37) =      1.64092  eV     1   --> B_1  D_3  S_3  
     e( 38 - 38) =      1.81995  eV     1   --> B_1  D_3  S_3  
     e( 39 - 39) =      1.95450  eV     1   --> A_1  D_1  S_1  
     e( 40 - 40) =      2.24194  eV     1   --> B_2  D_4  S_4  
     e( 41 - 41) =      2.45092  eV     1   --> A_1  D_1  S_1  
     e( 42 - 42) =      2.92782  eV     1   --> A_1  D_1  S_1  
     e( 43 - 43) =      2.94573  eV     1   --> B_1  D_3  S_3  
     e( 44 - 44) =      3.24335  eV     1   --> A_2  D_2  S_2  
     e( 45 - 45) =      3.24484  eV     1   --> B_2  D_4  S_4  
     e( 46 - 46) =      3.42994  eV     1   --> B_1  D_3  S_3  
     e( 47 - 47) =      3.54168  eV     1   --> A_1  D_1  S_1  
     e( 48 - 48) =      3.58365  eV     1   --> A_2  D_2  S_2  
     e( 49 - 49) =      3.95486  eV     1   --> B_2  D_4  S_4  
     e( 50 - 50) =      3.97518  eV     1   --> B_1  D_3  S_3  
     e( 51 - 51) =      4.24441  eV     1   --> A_1  D_1  S_1  
     e( 52 - 52) =      4.58015  eV     1   --> B_2  D_4  S_4  
     e( 53 - 53) =      4.67631  eV     1   --> A_2  D_2  S_2  
     e( 54 - 54) =      4.68849  eV     1   --> A_1  D_1  S_1  
     e( 55 - 55) =      4.97378  eV     1   --> A_1  D_1  S_1  
     e( 56 - 56) =      5.06399  eV     1   --> B_1  D_3  S_3  
     e( 57 - 57) =      5.23973  eV     1   --> B_2  D_4  S_4  
     e( 58 - 58) =      5.32392  eV     1   --> A_2  D_2  S_2  
     e( 59 - 59) =      5.48445  eV     1   --> B_2  D_4  S_4  
     e( 60 - 60) =      5.74661  eV     1   --> A_2  D_2  S_2  

 **************************************************************************

 **************************************************************************

                    xk=(   0.04500,   0.00000,   0.00000  )

     Band symmetry, C_2v (mm2)  point group:

     e(  1 -  1) =    -21.79655  eV     1   --> A_1  D_1  S_1  
     e(  2 -  2) =    -20.70955  eV     1   --> B_2  D_4  S_4  
     e(  3 -  3) =    -18.93198  eV     1   --> A_1  D_1  S_1  
     e(  4 -  4) =    -16.96353  eV     1   --> B_2  D_4  S_4  
     e(  5 -  5) =    -16.83360  eV     1   --> B_2  D_4  S_4  
     e(  6 -  6) =    -15.98067  eV     1   --> A_1  D_1  S_1  
     e(  7 -  7) =    -15.41991  eV     1   --> B_2  D_4  S_4  
     e(  8 -  8) =    -15.11857  eV     1   --> A_1  D_1  S_1  
     e(  9 -  9) =    -14.15127  eV     1   --> B_2  D_4  S_4  
     e( 10 - 10) =    -12.92140  eV     1   --> A_1  D_1  S_1  
     e( 11 - 11) =    -12.15512  eV     1   --> B_2  D_4  S_4  
     e( 12 - 12) =    -12.07858  eV     1   --> A_1  D_1  S_1  
     e( 13 - 13) =    -11.21777  eV     1   --> B_2  D_4  S_4  
     e( 14 - 14) =    -10.24195  eV     1   --> A_1  D_1  S_1  
     e( 15 - 15) =     -9.87733  eV     1   --> B_1  D_3  S_3  
     e( 16 - 16) =     -9.77057  eV     1   --> B_2  D_4  S_4  
     e( 17 - 17) =     -9.47453  eV     1   --> A_1  D_1  S_1  
     e( 18 - 18) =     -8.65717  eV     1   --> A_2  D_2  S_2  
     e( 19 - 19) =     -8.01046  eV     1   --> B_2  D_4  S_4  
     e( 20 - 20) =     -7.64310  eV     1   --> A_1  D_1  S_1  
     e( 21 - 21) =     -6.71374  eV     1   --> B_1  D_3  S_3  
     e( 22 - 22) =     -6.48576  eV     1   --> A_1  D_1  S_1  
     e( 23 - 23) =     -6.22023  eV     1   --> B_2  D_4  S_4  
     e( 24 - 24) =     -4.81140  eV     1   --> A_2  D_2  S_2  
     e( 25 - 25) =     -4.43103  eV     1   --> A_2  D_2  S_2  
     e( 26 - 26) =     -3.53010  eV     1   --> B_1  D_3  S_3  
     e( 27 - 27) =     -2.12832  eV     1   --> B_1  D_3  S_3  
     e( 28 - 28) =     -1.16471  eV     1   --> A_2  D_2  S_2  
     e( 29 - 29) =     -1.11272  eV     1   --> A_2  D_2  S_2  
     e( 30 - 30) =      0.27448  eV     1   --> A_1  D_1  S_1  
     e( 31 - 31) =      0.55759  eV     1   --> B_2  D_4  S_4  
     e( 32 - 32) =      0.79958  eV     1   --> A_1  D_1  S_1  
     e( 33 - 33) =      1.18257  eV     1   --> B_1  D_3  S_3  
     e( 34 - 34) =      1.35247  eV     1   --> A_1  D_1  S_1  
     e( 35 - 35) =      1.55013  eV     1   --> B_2  D_4  S_4  
     e( 36 - 36) =      1.58175  eV     1   --> A_2  D_2  S_2  
     e( 37 - 37) =      1.63408  eV     1   --> B_1  D_3  S_3  
     e( 38 - 38) =      1.82343  eV     1   --> B_1  D_3  S_3  
     e( 39 - 39) =      1.95790  eV     1   --> A_1  D_1  S_1  
     e( 40 - 40) =      2.24531  eV     1   --> B_2  D_4  S_4  
     e( 41 - 41) =      2.45419  eV     1   --> A_1  D_1  S_1  
     e( 42 - 42) =      2.93114  eV     1   --> A_1  D_1  S_1  
     e( 43 - 43) =      2.95010  eV     1   --> B_1  D_3  S_3  
     e( 44 - 44) =      3.24691  eV     1   --> A_2  D_2  S_2  
     e( 45 - 45) =      3.24825  eV     1   --> B_2  D_4  S_4  
     e( 46 - 46) =      3.43340  eV     1   --> B_1  D_3  S_3  
     e( 47 - 47) =      3.54509  eV     1   --> A_1  D_1  S_1  
     e( 48 - 48) =      3.58708  eV     1   --> A_2  D_2  S_2  
     e( 49 - 49) =      3.95844  eV     1   --> B_2  D_4  S_4  
     e( 50 - 50) =      3.97857  eV     1   --> B_1  D_3  S_3  
     e( 51 - 51) =      4.24756  eV     1   --> A_1  D_1  S_1  
     e( 52 - 52) =      4.58331  eV     1   --> B_2  D_4  S_4  
     e( 53 - 53) =      4.66795  eV     1   --> A_2  D_2  S_2  
     e( 54 - 54) =      4.69179  eV     1   --> A_1  D_1  S_1  
     e( 55 - 55) =      4.97417  eV     1   --> A_1  D_1  S_1  
     e( 56 - 56) =      5.06796  eV     1   --> B_1  D_3  S_3  
     e( 57 - 57) =      5.24285  eV     1   --> B_2  D_4  S_4  
     e( 58 - 58) =      5.32764  eV     1   --> A_2  D_2  S_2  
     e( 59 - 59) =      5.48759  eV     1   --> B_2  D_4  S_4  
     e( 60 - 60) =      5.75063  eV     1   --> A_2  D_2  S_2  

 **************************************************************************

 **************************************************************************

                    xk=(   0.05000,   0.00000,   0.00000  )

     Band symmetry, C_2v (mm2)  point group:

     e(  1 -  1) =    -21.79382  eV     1   --> A_1  D_1  S_1  
     e(  2 -  2) =    -20.70692  eV     1   --> B_2  D_4  S_4  
     e(  3 -  3) =    -18.92963  eV     1   --> A_1  D_1  S_1  
     e(  4 -  4) =    -16.99102  eV     1   --> B_2  D_4  S_4  
     e(  5 -  5) =    -16.83760  eV     1   --> B_2  D_4  S_4  
     e(  6 -  6) =    -16.01623  eV     1   --> A_1  D_1  S_1  
     e(  7 -  7) =    -15.38398  eV     1   --> B_2  D_4  S_4  
     e(  8 -  8) =    -15.08707  eV     1   --> A_1  D_1  S_1  
     e(  9 -  9) =    -14.16727  eV     1   --> B_2  D_4  S_4  
     e( 10 - 10) =    -12.91410  eV     1   --> A_1  D_1  S_1  
     e( 11 - 11) =    -12.13663  eV     1   --> B_2  D_4  S_4  
     e( 12 - 12) =    -12.09080  eV     1   --> A_1  D_1  S_1  
     e( 13 - 13) =    -11.21555  eV     1   --> B_2  D_4  S_4  
     e( 14 - 14) =    -10.22911  eV     1   --> A_1  D_1  S_1  
     e( 15 - 15) =     -9.87406  eV     1   --> B_1  D_3  S_3  
     e( 16 - 16) =     -9.78009  eV     1   --> B_2  D_4  S_4  
     e( 17 - 17) =     -9.47127  eV     1   --> A_1  D_1  S_1  
     e( 18 - 18) =     -8.65406  eV     1   --> A_2  D_2  S_2  
     e( 19 - 19) =     -8.00595  eV     1   --> B_2  D_4  S_4  
     e( 20 - 20) =     -7.65145  eV     1   --> A_1  D_1  S_1  
     e( 21 - 21) =     -6.71129  eV     1   --> B_1  D_3  S_3  
     e( 22 - 22) =     -6.49097  eV     1   --> A_1  D_1  S_1  
     e( 23 - 23) =     -6.22627  eV     1   --> B_2  D_4  S_4  
     e( 24 - 24) =     -4.82955  eV     1   --> A_2  D_2  S_2  
     e( 25 - 25) =     -4.43282  eV     1   --> A_2  D_2  S_2  
     e( 26 - 26) =     -3.55976  eV     1   --> B_1  D_3  S_3  
     e( 27 - 27) =     -2.09875  eV     1   --> B_1  D_3  S_3  
     e( 28 - 28) =     -1.14346  eV     1   --> A_2  D_2  S_2  
     e( 29 - 29) =     -1.11430  eV     1   --> A_2  D_2  S_2  
     e( 30 - 30) =      0.27816  eV     1   --> A_1  D_1  S_1  
     e( 31 - 31) =      0.56124  eV     1   --> B_2  D_4  S_4  
     e( 32 - 32) =      0.80332  eV     1   --> A_1  D_1  S_1  
     e( 33 - 33) =      1.18608  eV     1   --> B_1  D_3  S_3  
     e( 34 - 34) =      1.35629  eV     1   --> A_1  D_1  S_1  
     e( 35 - 35) =      1.55387  eV     1   --> B_2  D_4  S_4  
     e( 36 - 36) =      1.58600  eV     1   --> A_2  D_2  S_2  
     e( 37 - 37) =      1.62651  eV     1   --> B_1  D_3  S_3  
     e( 38 - 38) =      1.82731  eV     1   --> B_1  D_3  S_3  
     e( 39 - 39) =      1.96169  eV     1   --> A_1  D_1  S_1  
     e( 40 - 40) =      2.24907  eV     1   --> B_2  D_4  S_4  
     e( 41 - 41) =      2.45784  eV     1   --> A_1  D_1  S_1  
     e( 42 - 42) =      2.93485  eV     1   --> A_1  D_1  S_1  
     e( 43 - 43) =      2.95497  eV     1   --> B_1  D_3  S_3  
     e( 44 - 44) =      3.25090  eV     1   --> A_2  D_2  S_2  
     e( 45 - 45) =      3.25206  eV     1   --> B_2  D_4  S_4  
     e( 46 - 46) =      3.43725  eV     1   --> B_1  D_3  S_3  
     e( 47 - 47) =      3.54890  eV     1   --> A_1  D_1  S_1  
     e( 48 - 48) =      3.59091  eV     1   --> A_2  D_2  S_2  
     e( 49 - 49) =      3.96243  eV     1   --> B_2  D_4  S_4  
     e( 50 - 50) =      3.98237  eV     1   --> B_1  D_3  S_3  
     e( 51 - 51) =      4.25108  eV     1   --> A_1  D_1  S_1  
     e( 52 - 52) =      4.58679  eV     1   --> B_2  D_4  S_4  
     e( 53 - 53) =      4.65865  eV     1   --> A_2  D_2  S_2  
     e( 54 - 54) =      4.69547  eV     1   --> A_1  D_1  S_1  
     e( 55 - 55) =      4.97464  eV     1   --> A_1  D_1  S_1  
     e( 56 - 56) =      5.07239  eV     1   --> B_1  D_3  S_3  
     e( 57 - 57) =      5.24624  eV     1   --> B_2  D_4  S_4  
     e( 58 - 58) =      5.33178  eV     1   --> A_2  D_2  S_2  
     e( 59 - 59) =      5.49108  eV     1   --> B_2  D_4  S_4  
     e( 60 - 60) =      5.75512  eV     1   --> A_2  D_2  S_2  

 **************************************************************************

 **************************************************************************

                    xk=(   0.05500,   0.00000,   0.00000  )

     Band symmetry, C_2v (mm2)  point group:

     e(  1 -  1) =    -21.79080  eV     1   --> A_1  D_1  S_1  
     e(  2 -  2) =    -20.70401  eV     1   --> B_2  D_4  S_4  
     e(  3 -  3) =    -18.92705  eV     1   --> A_1  D_1  S_1  
     e(  4 -  4) =    -17.02166  eV     1   --> B_2  D_4  S_4  
     e(  5 -  5) =    -16.84015  eV     1   --> B_2  D_4  S_4  
     e(  6 -  6) =    -16.05276  eV     1   --> A_1  D_1  S_1  
     e(  7 -  7) =    -15.34593  eV     1   --> B_2  D_4  S_4  
     e(  8 -  8) =    -15.05507  eV     1   --> A_1  D_1  S_1  
     e(  9 -  9) =    -14.18457  eV     1   --> B_2  D_4  S_4  
     e( 10 - 10) =    -12.90614  eV     1   --> A_1  D_1  S_1  
     e( 11 - 11) =    -12.11659  eV     1   --> B_2  D_4  S_4  
     e( 12 - 12) =    -12.10391  eV     1   --> A_1  D_1  S_1  
     e( 13 - 13) =    -11.21310  eV     1   --> B_2  D_4  S_4  
     e( 14 - 14) =    -10.21520  eV     1   --> A_1  D_1  S_1  
     e( 15 - 15) =     -9.87046  eV     1   --> B_1  D_3  S_3  
     e( 16 - 16) =     -9.79046  eV     1   --> B_2  D_4  S_4  
     e( 17 - 17) =     -9.46767  eV     1   --> A_1  D_1  S_1  
     e( 18 - 18) =     -8.65062  eV     1   --> A_2  D_2  S_2  
     e( 19 - 19) =     -8.00110  eV     1   --> B_2  D_4  S_4  
     e( 20 - 20) =     -7.66061  eV     1   --> A_1  D_1  S_1  
     e( 21 - 21) =     -6.70859  eV     1   --> B_1  D_3  S_3  
     e( 22 - 22) =     -6.49676  eV     1   --> A_1  D_1  S_1  
     e( 23 - 23) =     -6.23292  eV     1   --> B_2  D_4  S_4  
     e( 24 - 24) =     -4.84934  eV     1   --> A_2  D_2  S_2  
     e( 25 - 25) =     -4.43481  eV     1   --> A_2  D_2  S_2  
     e( 26 - 26) =     -3.59118  eV     1   --> B_1  D_3  S_3  
     e( 27 - 27) =     -2.06744  eV     1   --> B_1  D_3  S_3  
     e( 28 - 28) =     -1.12065  eV     1   --> A_2  D_2  S_2  
     e( 29 - 29) =     -1.11559  eV     1   --> A_2  D_2  S_2  
     e( 30 - 30) =      0.28223  eV     1   --> A_1  D_1  S_1  
     e( 31 - 31) =      0.56528  eV     1   --> B_2  D_4  S_4  
     e( 32 - 32) =      0.80746  eV     1   --> A_1  D_1  S_1  
     e( 33 - 33) =      1.18992  eV     1   --> B_1  D_3  S_3  
     e( 34 - 34) =      1.36050  eV     1   --> A_1  D_1  S_1  
     e( 35 - 35) =      1.55801  eV     1   --> B_2  D_4  S_4  
     e( 36 - 36) =      1.59068  eV     1   --> A_2  D_2  S_2  
     e( 37 - 37) =      1.61822  eV     1   --> B_1  D_3  S_3  
     e( 38 - 38) =      1.83159  eV     1   --> B_1  D_3  S_3  
     e( 39 - 39) =      1.96589  eV     1   --> A_1  D_1  S_1  
     e( 40 - 40) =      2.25323  eV     1   --> B_2  D_4  S_4  
     e( 41 - 41) =      2.46188  eV     1   --> A_1  D_1  S_1  
     e( 42 - 42) =      2.93895  eV     1   --> A_1  D_1  S_1  
     e( 43 - 43) =      2.96034  eV     1   --> B_1  D_3  S_3  
     e( 44 - 44) =      3.25531  eV     1   --> A_2  D_2  S_2  
     e( 45 - 45) =      3.25626  eV     1   --> B_2  D_4  S_4  
     e( 46 - 46) =      3.44151  eV     1   --> B_1  D_3  S_3  
     e( 47 - 47) =      3.55312  eV     1   --> A_1  D_1  S_1  
     e( 48 - 48) =      3.59513  eV     1   --> A_2  D_2  S_2  
     e( 49 - 49) =      3.96682  eV     1   --> B_2  D_4  S_4  
     e( 50 - 50) =      3.98656  eV     1   --> B_1  D_3  S_3  
     e( 51 - 51) =      4.25497  eV     1   --> A_1  D_1  S_1  
     e( 52 - 52) =      4.59057  eV     1   --> B_2  D_4  S_4  
     e( 53 - 53) =      4.64843  eV     1   --> A_2  D_2  S_2  
     e( 54 - 54) =      4.69954  eV     1   --> A_1  D_1  S_1  
     e( 55 - 55) =      4.97521  eV     1   --> A_1  D_1  S_1  
     e( 56 - 56) =      5.07729  eV     1   --> B_1  D_3  S_3  
     e( 57 - 57) =      5.24988  eV     1   --> B_2  D_4  S_4  
     e( 58 - 58) =      5.33635  eV     1   --> A_2  D_2  S_2  
     e( 59 - 59) =      5.49493  eV     1   --> B_2  D_4  S_4  
     e( 60 - 60) =      5.76007  eV     1   --> A_2  D_2  S_2  

 **************************************************************************

 **************************************************************************

                    xk=(   0.06000,   0.00000,   0.00000  )

     Band symmetry, C_2v (mm2)  point group:

     e(  1 -  1) =    -21.78750  eV     1   --> A_1  D_1  S_1  
     e(  2 -  2) =    -20.70082  eV     1   --> B_2  D_4  S_4  
     e(  3 -  3) =    -18.92421  eV     1   --> A_1  D_1  S_1  
     e(  4 -  4) =    -17.05476  eV     1   --> B_2  D_4  S_4  
     e(  5 -  5) =    -16.84168  eV     1   --> B_2  D_4  S_4  
     e(  6 -  6) =    -16.09005  eV     1   --> A_1  D_1  S_1  
     e(  7 -  7) =    -15.30599  eV     1   --> B_2  D_4  S_4  
     e(  8 -  8) =    -15.02277  eV     1   --> A_1  D_1  S_1  
     e(  9 -  9) =    -14.20306  eV     1   --> B_2  D_4  S_4  
     e( 10 - 10) =    -12.89754  eV     1   --> A_1  D_1  S_1  
     e( 11 - 11) =    -12.11782  eV     1   --> A_1  D_1  S_1  
     e( 12 - 12) =    -12.09512  eV     1   --> B_2  D_4  S_4  
     e( 13 - 13) =    -11.21042  eV     1   --> B_2  D_4  S_4  
     e( 14 - 14) =    -10.20030  eV     1   --> A_1  D_1  S_1  
     e( 15 - 15) =     -9.86651  eV     1   --> B_1  D_3  S_3  
     e( 16 - 16) =     -9.80164  eV     1   --> B_2  D_4  S_4  
     e( 17 - 17) =     -9.46373  eV     1   --> A_1  D_1  S_1  
     e( 18 - 18) =     -8.64685  eV     1   --> A_2  D_2  S_2  
     e( 19 - 19) =     -7.99595  eV     1   --> B_2  D_4  S_4  
     e( 20 - 20) =     -7.67058  eV     1   --> A_1  D_1  S_1  
     e( 21 - 21) =     -6.70563  eV     1   --> B_1  D_3  S_3  
     e( 22 - 22) =     -6.50315  eV     1   --> A_1  D_1  S_1  
     e( 23 - 23) =     -6.24018  eV     1   --> B_2  D_4  S_4  
     e( 24 - 24) =     -4.87071  eV     1   --> A_2  D_2  S_2  
     e( 25 - 25) =     -4.43701  eV     1   --> A_2  D_2  S_2  
     e( 26 - 26) =     -3.62413  eV     1   --> B_1  D_3  S_3  
     e( 27 - 27) =     -2.03460  eV     1   --> B_1  D_3  S_3  
     e( 28 - 28) =     -1.11814  eV     1   --> A_2  D_2  S_2  
     e( 29 - 29) =     -1.09481  eV     1   --> A_2  D_2  S_2  
     e( 30 - 30) =      0.28669  eV     1   --> A_1  D_1  S_1  
     e( 31 - 31) =      0.56969  eV     1   --> B_2  D_4  S_4  
     e( 32 - 32) =      0.81198  eV     1   --> A_1  D_1  S_1  
     e( 33 - 33) =      1.19409  eV     1   --> B_1  D_3  S_3  
     e( 34 - 34) =      1.36511  eV     1   --> A_1  D_1  S_1  
     e( 35 - 35) =      1.56255  eV     1   --> B_2  D_4  S_4  
     e( 36 - 36) =      1.59581  eV     1   --> A_2  D_2  S_2  
     e( 37 - 37) =      1.60924  eV     1   --> B_1  D_3  S_3  
     e( 38 - 38) =      1.83627  eV     1   --> B_1  D_3  S_3  
     e( 39 - 39) =      1.97048  eV     1   --> A_1  D_1  S_1  
     e( 40 - 40) =      2.25779  eV     1   --> B_2  D_4  S_4  
     e( 41 - 41) =      2.46631  eV     1   --> A_1  D_1  S_1  
     e( 42 - 42) =      2.94345  eV     1   --> A_1  D_1  S_1  
     e( 43 - 43) =      2.96620  eV     1   --> B_1  D_3  S_3  
     e( 44 - 44) =      3.26013  eV     1   --> A_2  D_2  S_2  
     e( 45 - 45) =      3.26087  eV     1   --> B_2  D_4  S_4  
     e( 46 - 46) =      3.44618  eV     1   --> B_1  D_3  S_3  
     e( 47 - 47) =      3.55773  eV     1   --> A_1  D_1  S_1  
     e( 48 - 48) =      3.59975  eV     1   --> A_2  D_2  S_2  
     e( 49 - 49) =      3.97161  eV     1   --> B_2  D_4  S_4  
     e( 50 - 50) =      3.99115  eV     1   --> B_1  D_3  S_3  
     e( 51 - 51) =      4.25923  eV     1   --> A_1  D_1  S_1  
     e( 52 - 52) =      4.59464  eV     1   --> B_2  D_4  S_4  
     e( 53 - 53) =      4.63730  eV     1   --> A_2  D_2  S_2  
     e( 54 - 54) =      4.70399  eV     1   --> A_1  D_1  S_1  
     e( 55 - 55) =      4.97588  eV     1   --> A_1  D_1  S_1  
     e( 56 - 56) =      5.08264  eV     1   --> B_1  D_3  S_3  
     e( 57 - 57) =      5.25373  eV     1   --> B_2  D_4  S_4  
     e( 58 - 58) =      5.34134  eV     1   --> A_2  D_2  S_2  
     e( 59 - 59) =      5.49914  eV     1   --> B_2  D_4  S_4  
     e( 60 - 60) =      5.76549  eV     1   --> A_2  D_2  S_2  

 **************************************************************************

 **************************************************************************

                    xk=(   0.06500,   0.00000,   0.00000  )

     Band symmetry, C_2v (mm2)  point group:

     e(  1 -  1) =    -21.78390  eV     1   --> A_1  D_1  S_1  
     e(  2 -  2) =    -20.69736  eV     1   --> B_2  D_4  S_4  
     e(  3 -  3) =    -18.92114  eV     1   --> A_1  D_1  S_1  
     e(  4 -  4) =    -17.08978  eV     1   --> B_2  D_4  S_4  
     e(  5 -  5) =    -16.84251  eV     1   --> B_2  D_4  S_4  
     e(  6 -  6) =    -16.12796  eV     1   --> A_1  D_1  S_1  
     e(  7 -  7) =    -15.26439  eV     1   --> B_2  D_4  S_4  
     e(  8 -  8) =    -14.99030  eV     1   --> A_1  D_1  S_1  
     e(  9 -  9) =    -14.22265  eV     1   --> B_2  D_4  S_4  
     e( 10 - 10) =    -12.88835  eV     1   --> A_1  D_1  S_1  
     e( 11 - 11) =    -12.13240  eV     1   --> A_1  D_1  S_1  
     e( 12 - 12) =    -12.07231  eV     1   --> B_2  D_4  S_4  
     e( 13 - 13) =    -11.20752  eV     1   --> B_2  D_4  S_4  
     e( 14 - 14) =    -10.18447  eV     1   --> A_1  D_1  S_1  
     e( 15 - 15) =     -9.86222  eV     1   --> B_1  D_3  S_3  
     e( 16 - 16) =     -9.81360  eV     1   --> B_2  D_4  S_4  
     e( 17 - 17) =     -9.45944  eV     1   --> A_1  D_1  S_1  
     e( 18 - 18) =     -8.64276  eV     1   --> A_2  D_2  S_2  
     e( 19 - 19) =     -7.99052  eV     1   --> B_2  D_4  S_4  
     e( 20 - 20) =     -7.68135  eV     1   --> A_1  D_1  S_1  
     e( 21 - 21) =     -6.70242  eV     1   --> B_1  D_3  S_3  
     e( 22 - 22) =     -6.51014  eV     1   --> A_1  D_1  S_1  
     e( 23 - 23) =     -6.24804  eV     1   --> B_2  D_4  S_4  
     e( 24 - 24) =     -4.89359  eV     1   --> A_2  D_2  S_2  
     e( 25 - 25) =     -4.43943  eV     1   --> A_2  D_2  S_2  
     e( 26 - 26) =     -3.65842  eV     1   --> B_1  D_3  S_3  
     e( 27 - 27) =     -2.00043  eV     1   --> B_1  D_3  S_3  
     e( 28 - 28) =     -1.12010  eV     1   --> A_2  D_2  S_2  
     e( 29 - 29) =     -1.06783  eV     1   --> A_2  D_2  S_2  
     e( 30 - 30) =      0.29154  eV     1   --> A_1  D_1  S_1  
     e( 31 - 31) =      0.57449  eV     1   --> B_2  D_4  S_4  
     e( 32 - 32) =      0.81690  eV     1   --> A_1  D_1  S_1  
     e( 33 - 33) =      1.19857  eV     1   --> B_1  D_3  S_3  
     e( 34 - 34) =      1.37013  eV     1   --> A_1  D_1  S_1  
     e( 35 - 35) =      1.56747  eV     1   --> B_2  D_4  S_4  
     e( 36 - 36) =      1.59961  eV     1   --> B_1  D_3  S_3  
     e( 37 - 37) =      1.60137  eV     1   --> A_2  D_2  S_2  
     e( 38 - 38) =      1.84135  eV     1   --> B_1  D_3  S_3  
     e( 39 - 39) =      1.97548  eV     1   --> A_1  D_1  S_1  
     e( 40 - 40) =      2.26274  eV     1   --> B_2  D_4  S_4  
     e( 41 - 41) =      2.47113  eV     1   --> A_1  D_1  S_1  
     e( 42 - 42) =      2.94834  eV     1   --> A_1  D_1  S_1  
     e( 43 - 43) =      2.97255  eV     1   --> B_1  D_3  S_3  
     e( 44 - 44) =      3.26537  eV     1   --> A_2  D_2  S_2  
     e( 45 - 45) =      3.26587  eV     1   --> B_2  D_4  S_4  
     e( 46 - 46) =      3.45125  eV     1   --> B_1  D_3  S_3  
     e( 47 - 47) =      3.56275  eV     1   --> A_1  D_1  S_1  
     e( 48 - 48) =      3.60475  eV     1   --> A_2  D_2  S_2  
     e( 49 - 49) =      3.97678  eV     1   --> B_2  D_4  S_4  
     e( 50 - 50) =      3.99615  eV     1   --> B_1  D_3  S_3  
     e( 51 - 51) =      4.26386  eV     1   --> A_1  D_1  S_1  
     e( 52 - 52) =      4.59897  eV     1   --> B_2  D_4  S_4  
     e( 53 - 53) =      4.62529  eV     1   --> A_2  D_2  S_2  
     e( 54 - 54) =      4.70883  eV     1   --> A_1  D_1  S_1  
     e( 55 - 55) =      4.97667  eV     1   --> A_1  D_1  S_1  
     e( 56 - 56) =      5.08846  eV     1   --> B_1  D_3  S_3  
     e( 57 - 57) =      5.25774  eV     1   --> B_2  D_4  S_4  
     e( 58 - 58) =      5.34675  eV     1   --> A_2  D_2  S_2  
     e( 59 - 59) =      5.50371  eV     1   --> B_2  D_4  S_4  
     e( 60 - 60) =      5.77137  eV     1   --> A_2  D_2  S_2  

 **************************************************************************

 **************************************************************************

                    xk=(   0.07000,   0.00000,   0.00000  )

     Band symmetry, C_2v (mm2)  point group:

     e(  1 -  1) =    -21.78002  eV     1   --> A_1  D_1  S_1  
     e(  2 -  2) =    -20.69362  eV     1   --> B_2  D_4  S_4  
     e(  3 -  3) =    -18.91782  eV     1   --> A_1  D_1  S_1  
     e(  4 -  4) =    -17.12635  eV     1   --> B_2  D_4  S_4  
     e(  5 -  5) =    -16.84284  eV     1   --> B_2  D_4  S_4  
     e(  6 -  6) =    -16.16638  eV     1   --> A_1  D_1  S_1  
     e(  7 -  7) =    -15.22131  eV     1   --> B_2  D_4  S_4  
     e(  8 -  8) =    -14.95780  eV     1   --> A_1  D_1  S_1  
     e(  9 -  9) =    -14.24326  eV     1   --> B_2  D_4  S_4  
     e( 10 - 10) =    -12.87864  eV     1   --> A_1  D_1  S_1  
     e( 11 - 11) =    -12.14752  eV     1   --> A_1  D_1  S_1  
     e( 12 - 12) =    -12.04826  eV     1   --> B_2  D_4  S_4  
     e( 13 - 13) =    -11.20438  eV     1   --> B_2  D_4  S_4  
     e( 14 - 14) =    -10.16779  eV     1   --> A_1  D_1  S_1  
     e( 15 - 15) =     -9.85759  eV     1   --> B_1  D_3  S_3  
     e( 16 - 16) =     -9.82628  eV     1   --> B_2  D_4  S_4  
     e( 17 - 17) =     -9.45480  eV     1   --> A_1  D_1  S_1  
     e( 18 - 18) =     -8.63834  eV     1   --> A_2  D_2  S_2  
     e( 19 - 19) =     -7.98487  eV     1   --> B_2  D_4  S_4  
     e( 20 - 20) =     -7.69288  eV     1   --> A_1  D_1  S_1  
     e( 21 - 21) =     -6.69895  eV     1   --> B_1  D_3  S_3  
     e( 22 - 22) =     -6.51775  eV     1   --> A_1  D_1  S_1  
     e( 23 - 23) =     -6.25651  eV     1   --> B_2  D_4  S_4  
     e( 24 - 24) =     -4.91791  eV     1   --> A_2  D_2  S_2  
     e( 25 - 25) =     -4.44206  eV     1   --> A_2  D_2  S_2  
     e( 26 - 26) =     -3.69388  eV     1   --> B_1  D_3  S_3  
     e( 27 - 27) =     -1.96510  eV     1   --> B_1  D_3  S_3  
     e( 28 - 28) =     -1.12221  eV     1   --> A_2  D_2  S_2  
     e( 29 - 29) =     -1.03904  eV     1   --> A_2  D_2  S_2  
     e( 30 - 30) =      0.29678  eV     1   --> A_1  D_1  S_1  
     e( 31 - 31) =      0.57967  eV     1   --> B_2  D_4  S_4  
     e( 32 - 32) =      0.82222  eV     1   --> A_1  D_1  S_1  
     e( 33 - 33) =      1.20334  eV     1   --> B_1  D_3  S_3  
     e( 34 - 34) =      1.37554  eV     1   --> A_1  D_1  S_1  
     e( 35 - 35) =      1.57279  eV     1   --> B_2  D_4  S_4  
     e( 36 - 36) =      1.58935  eV     1   --> B_1  D_3  S_3  
     e( 37 - 37) =      1.60738  eV     1   --> A_2  D_2  S_2  
     e( 38 - 38) =      1.84684  eV     1   --> B_1  D_3  S_3  
     e( 39 - 39) =      1.98087  eV     1   --> A_1  D_1  S_1  
     e( 40 - 40) =      2.26809  eV     1   --> B_2  D_4  S_4  
     e( 41 - 41) =      2.47634  eV     1   --> A_1  D_1  S_1  
     e( 42 - 42) =      2.95362  eV     1   --> A_1  D_1  S_1  
     e( 43 - 43) =      2.97939  eV     1   --> B_1  D_3  S_3  
     e( 44 - 44) =      3.27103  eV     1   --> A_2  D_2  S_2  
     e( 45 - 45) =      3.27126  eV     1   --> B_2  D_4  S_4  
     e( 46 - 46) =      3.45673  eV     1   --> B_1  D_3  S_3  
     e( 47 - 47) =      3.56818  eV     1   --> A_1  D_1  S_1  
     e( 48 - 48) =      3.61014  eV     1   --> A_2  D_2  S_2  
     e( 49 - 49) =      3.98233  eV     1   --> B_2  D_4  S_4  
     e( 50 - 50) =      4.00154  eV     1   --> B_1  D_3  S_3  
     e( 51 - 51) =      4.26887  eV     1   --> A_1  D_1  S_1  
     e( 52 - 52) =      4.60354  eV     1   --> B_2  D_4  S_4  
     e( 53 - 53) =      4.61240  eV     1   --> A_2  D_2  S_2  
     e( 54 - 54) =      4.71406  eV     1   --> A_1  D_1  S_1  
     e( 55 - 55) =      4.97758  eV     1   --> A_1  D_1  S_1  
     e( 56 - 56) =      5.09474  eV     1   --> B_1  D_3  S_3  
     e( 57 - 57) =      5.26186  eV     1   --> B_2  D_4  S_4  
     e( 58 - 58) =      5.35257  eV     1   --> A_2  D_2  S_2  
     e( 59 - 59) =      5.50863  eV     1   --> B_2  D_4  S_4  
     e( 60 - 60) =      5.77771  eV     1   --> A_2  D_2  S_2  

 **************************************************************************

 **************************************************************************

                    xk=(   0.07500,   0.00000,   0.00000  )

     Band symmetry, C_2v (mm2)  point group:

     e(  1 -  1) =    -21.77586  eV     1   --> A_1  D_1  S_1  
     e(  2 -  2) =    -20.68960  eV     1   --> B_2  D_4  S_4  
     e(  3 -  3) =    -18.91426  eV     1   --> A_1  D_1  S_1  
     e(  4 -  4) =    -17.16416  eV     1   --> B_2  D_4  S_4  
     e(  5 -  5) =    -16.84280  eV     1   --> B_2  D_4  S_4  
     e(  6 -  6) =    -16.20520  eV     1   --> A_1  D_1  S_1  
     e(  7 -  7) =    -15.17692  eV     1   --> B_2  D_4  S_4  
     e(  8 -  8) =    -14.92537  eV     1   --> A_1  D_1  S_1  
     e(  9 -  9) =    -14.26478  eV     1   --> B_2  D_4  S_4  
     e( 10 - 10) =    -12.86847  eV     1   --> A_1  D_1  S_1  
     e( 11 - 11) =    -12.16303  eV     1   --> A_1  D_1  S_1  
     e( 12 - 12) =    -12.02307  eV     1   --> B_2  D_4  S_4  
     e( 13 - 13) =    -11.20101  eV     1   --> B_2  D_4  S_4  
     e( 14 - 14) =    -10.15033  eV     1   --> A_1  D_1  S_1  
     e( 15 - 15) =     -9.85262  eV     1   --> B_1  D_3  S_3  
     e( 16 - 16) =     -9.83964  eV     1   --> B_2  D_4  S_4  
     e( 17 - 17) =     -9.44981  eV     1   --> A_1  D_1  S_1  
     e( 18 - 18) =     -8.63360  eV     1   --> A_2  D_2  S_2  
     e( 19 - 19) =     -7.97903  eV     1   --> B_2  D_4  S_4  
     e( 20 - 20) =     -7.70518  eV     1   --> A_1  D_1  S_1  
     e( 21 - 21) =     -6.69522  eV     1   --> B_1  D_3  S_3  
     e( 22 - 22) =     -6.52598  eV     1   --> A_1  D_1  S_1  
     e( 23 - 23) =     -6.26557  eV     1   --> B_2  D_4  S_4  
     e( 24 - 24) =     -4.94359  eV     1   --> A_2  D_2  S_2  
     e( 25 - 25) =     -4.44491  eV     1   --> A_2  D_2  S_2  
     e( 26 - 26) =     -3.73036  eV     1   --> B_1  D_3  S_3  
     e( 27 - 27) =     -1.92875  eV     1   --> B_1  D_3  S_3  
     e( 28 - 28) =     -1.12444  eV     1   --> A_2  D_2  S_2  
     e( 29 - 29) =     -1.00853  eV     1   --> A_2  D_2  S_2  
     e( 30 - 30) =      0.30240  eV     1   --> A_1  D_1  S_1  
     e( 31 - 31) =      0.58522  eV     1   --> B_2  D_4  S_4  
     e( 32 - 32) =      0.82793  eV     1   --> A_1  D_1  S_1  
     e( 33 - 33) =      1.20837  eV     1   --> B_1  D_3  S_3  
     e( 34 - 34) =      1.38136  eV     1   --> A_1  D_1  S_1  
     e( 35 - 36) =      1.57850  eV     2   --> B_1  D_3  S_3  
     e( 35 - 36) =      1.57850  eV     2   --> B_2  D_4  S_4  
     e( 37 - 37) =      1.61382  eV     1   --> A_2  D_2  S_2  
     e( 38 - 38) =      1.85273  eV     1   --> B_1  D_3  S_3  
     e( 39 - 39) =      1.98667  eV     1   --> A_1  D_1  S_1  
     e( 40 - 40) =      2.27383  eV     1   --> B_2  D_4  S_4  
     e( 41 - 41) =      2.48194  eV     1   --> A_1  D_1  S_1  
     e( 42 - 42) =      2.95930  eV     1   --> A_1  D_1  S_1  
     e( 43 - 43) =      2.98671  eV     1   --> B_1  D_3  S_3  
     e( 44 - 45) =      3.27705  eV     2   --> A_2  D_2  S_2  
     e( 44 - 45) =      3.27705  eV     2   --> B_2  D_4  S_4  
     e( 46 - 46) =      3.46261  eV     1   --> B_1  D_3  S_3  
     e( 47 - 47) =      3.57400  eV     1   --> A_1  D_1  S_1  
     e( 48 - 48) =      3.61591  eV     1   --> A_2  D_2  S_2  
     e( 49 - 49) =      3.98826  eV     1   --> B_2  D_4  S_4  
     e( 50 - 50) =      4.00733  eV     1   --> B_1  D_3  S_3  
     e( 51 - 51) =      4.27424  eV     1   --> A_1  D_1  S_1  
     e( 52 - 52) =      4.59866  eV     1   --> A_2  D_2  S_2  
     e( 53 - 53) =      4.60832  eV     1   --> B_2  D_4  S_4  
     e( 54 - 54) =      4.71967  eV     1   --> A_1  D_1  S_1  
     e( 55 - 55) =      4.97861  eV     1   --> A_1  D_1  S_1  
     e( 56 - 56) =      5.10147  eV     1   --> B_1  D_3  S_3  
     e( 57 - 57) =      5.26604  eV     1   --> B_2  D_4  S_4  
     e( 58 - 58) =      5.35880  eV     1   --> A_2  D_2  S_2  
     e( 59 - 59) =      5.51389  eV     1   --> B_2  D_4  S_4  
     e( 60 - 60) =      5.78449  eV     1   --> A_2  D_2  S_2  

 **************************************************************************

 **************************************************************************

                    xk=(   0.08000,   0.00000,   0.00000  )

     Band symmetry, C_2v (mm2)  point group:

     e(  1 -  1) =    -21.77140  eV     1   --> A_1  D_1  S_1  
     e(  2 -  2) =    -20.68531  eV     1   --> B_2  D_4  S_4  
     e(  3 -  3) =    -18.91046  eV     1   --> A_1  D_1  S_1  
     e(  4 -  4) =    -17.20300  eV     1   --> B_2  D_4  S_4  
     e(  5 -  5) =    -16.84249  eV     1   --> B_2  D_4  S_4  
     e(  6 -  6) =    -16.24437  eV     1   --> A_1  D_1  S_1  
     e(  7 -  7) =    -15.13136  eV     1   --> B_2  D_4  S_4  
     e(  8 -  8) =    -14.89308  eV     1   --> A_1  D_1  S_1  
     e(  9 -  9) =    -14.28713  eV     1   --> B_2  D_4  S_4  
     e( 10 - 10) =    -12.85793  eV     1   --> A_1  D_1  S_1  
     e( 11 - 11) =    -12.17879  eV     1   --> A_1  D_1  S_1  
     e( 12 - 12) =    -11.99684  eV     1   --> B_2  D_4  S_4  
     e( 13 - 13) =    -11.19741  eV     1   --> B_2  D_4  S_4  
     e( 14 - 14) =    -10.13216  eV     1   --> A_1  D_1  S_1  
     e( 15 - 15) =     -9.85363  eV     1   --> B_2  D_4  S_4  
     e( 16 - 16) =     -9.84730  eV     1   --> B_1  D_3  S_3  
     e( 17 - 17) =     -9.44448  eV     1   --> A_1  D_1  S_1  
     e( 18 - 18) =     -8.62852  eV     1   --> A_2  D_2  S_2  
     e( 19 - 19) =     -7.97304  eV     1   --> B_2  D_4  S_4  
     e( 20 - 20) =     -7.71821  eV     1   --> A_1  D_1  S_1  
     e( 21 - 21) =     -6.69125  eV     1   --> B_1  D_3  S_3  
     e( 22 - 22) =     -6.53486  eV     1   --> A_1  D_1  S_1  
     e( 23 - 23) =     -6.27521  eV     1   --> B_2  D_4  S_4  
     e( 24 - 24) =     -4.97057  eV     1   --> A_2  D_2  S_2  
     e( 25 - 25) =     -4.44799  eV     1   --> A_2  D_2  S_2  
     e( 26 - 26) =     -3.76773  eV     1   --> B_1  D_3  S_3  
     e( 27 - 27) =     -1.89151  eV     1   --> B_1  D_3  S_3  
     e( 28 - 28) =     -1.12676  eV     1   --> A_2  D_2  S_2  
     e( 29 - 29) =     -0.97639  eV     1   --> A_2  D_2  S_2  
     e( 30 - 30) =      0.30842  eV     1   --> A_1  D_1  S_1  
     e( 31 - 31) =      0.59116  eV     1   --> B_2  D_4  S_4  
     e( 32 - 32) =      0.83404  eV     1   --> A_1  D_1  S_1  
     e( 33 - 33) =      1.21364  eV     1   --> B_1  D_3  S_3  
     e( 34 - 34) =      1.38758  eV     1   --> A_1  D_1  S_1  
     e( 35 - 35) =      1.56712  eV     1   --> B_1  D_3  S_3  
     e( 36 - 36) =      1.58461  eV     1   --> B_2  D_4  S_4  
     e( 37 - 37) =      1.62071  eV     1   --> A_2  D_2  S_2  
     e( 38 - 38) =      1.85901  eV     1   --> B_1  D_3  S_3  
     e( 39 - 39) =      1.99286  eV     1   --> A_1  D_1  S_1  
     e( 40 - 40) =      2.27997  eV     1   --> B_2  D_4  S_4  
     e( 41 - 41) =      2.48793  eV     1   --> A_1  D_1  S_1  
     e( 42 - 42) =      2.96537  eV     1   --> A_1  D_1  S_1  
     e( 43 - 43) =      2.99450  eV     1   --> B_1  D_3  S_3  
     e( 44 - 44) =      3.28323  eV     1   --> B_2  D_4  S_4  
     e( 45 - 45) =      3.28359  eV     1   --> A_2  D_2  S_2  
     e( 46 - 46) =      3.46889  eV     1   --> B_1  D_3  S_3  
     e( 47 - 47) =      3.58023  eV     1   --> A_1  D_1  S_1  
     e( 48 - 48) =      3.62206  eV     1   --> A_2  D_2  S_2  
     e( 49 - 49) =      3.99455  eV     1   --> B_2  D_4  S_4  
     e( 50 - 50) =      4.01351  eV     1   --> B_1  D_3  S_3  
     e( 51 - 51) =      4.27999  eV     1   --> A_1  D_1  S_1  
     e( 52 - 52) =      4.58409  eV     1   --> A_2  D_2  S_2  
     e( 53 - 53) =      4.61329  eV     1   --> B_2  D_4  S_4  
     e( 54 - 54) =      4.72566  eV     1   --> A_1  D_1  S_1  
     e( 55 - 55) =      4.97977  eV     1   --> A_1  D_1  S_1  
     e( 56 - 56) =      5.10867  eV     1   --> B_1  D_3  S_3  
     e( 57 - 57) =      5.27020  eV     1   --> B_2  D_4  S_4  
     e( 58 - 58) =      5.36543  eV     1   --> A_2  D_2  S_2  
     e( 59 - 59) =      5.51950  eV     1   --> B_2  D_4  S_4  
     e( 60 - 60) =      5.79174  eV     1   --> A_2  D_2  S_2  

 **************************************************************************

 **************************************************************************

                    xk=(   0.08500,   0.00000,   0.00000  )

     Band symmetry, C_2v (mm2)  point group:

     e(  1 -  1) =    -21.76666  eV     1   --> A_1  D_1  S_1  
     e(  2 -  2) =    -20.68074  eV     1   --> B_2  D_4  S_4  
     e(  3 -  3) =    -18.90642  eV     1   --> A_1  D_1  S_1  
     e(  4 -  4) =    -17.24268  eV     1   --> B_2  D_4  S_4  
     e(  5 -  5) =    -16.84198  eV     1   --> B_2  D_4  S_4  
     e(  6 -  6) =    -16.28380  eV     1   --> A_1  D_1  S_1  
     e(  7 -  7) =    -15.08476  eV     1   --> B_2  D_4  S_4  
     e(  8 -  8) =    -14.86101  eV     1   --> A_1  D_1  S_1  
     e(  9 -  9) =    -14.31022  eV     1   --> B_2  D_4  S_4  
     e( 10 - 10) =    -12.84713  eV     1   --> A_1  D_1  S_1  
     e( 11 - 11) =    -12.19461  eV     1   --> A_1  D_1  S_1  
     e( 12 - 12) =    -11.96966  eV     1   --> B_2  D_4  S_4  
     e( 13 - 13) =    -11.19358  eV     1   --> B_2  D_4  S_4  
     e( 14 - 14) =    -10.11335  eV     1   --> A_1  D_1  S_1  
     e( 15 - 15) =     -9.86820  eV     1   --> B_2  D_4  S_4  
     e( 16 - 16) =     -9.84164  eV     1   --> B_1  D_3  S_3  
     e( 17 - 17) =     -9.43880  eV     1   --> A_1  D_1  S_1  
     e( 18 - 18) =     -8.62312  eV     1   --> A_2  D_2  S_2  
     e( 19 - 19) =     -7.96694  eV     1   --> B_2  D_4  S_4  
     e( 20 - 20) =     -7.73195  eV     1   --> A_1  D_1  S_1  
     e( 21 - 21) =     -6.68702  eV     1   --> B_1  D_3  S_3  
     e( 22 - 22) =     -6.54438  eV     1   --> A_1  D_1  S_1  
     e( 23 - 23) =     -6.28543  eV     1   --> B_2  D_4  S_4  
     e( 24 - 24) =     -4.99878  eV     1   --> A_2  D_2  S_2  
     e( 25 - 25) =     -4.45129  eV     1   --> A_2  D_2  S_2  
     e( 26 - 26) =     -3.80587  eV     1   --> B_1  D_3  S_3  
     e( 27 - 27) =     -1.85350  eV     1   --> B_1  D_3  S_3  
     e( 28 - 28) =     -1.12917  eV     1   --> A_2  D_2  S_2  
     e( 29 - 29) =     -0.94267  eV     1   --> A_2  D_2  S_2  
     e( 30 - 30) =      0.31482  eV     1   --> A_1  D_1  S_1  
     e( 31 - 31) =      0.59748  eV     1   --> B_2  D_4  S_4  
     e( 32 - 32) =      0.84054  eV     1   --> A_1  D_1  S_1  
     e( 33 - 33) =      1.21911  eV     1   --> B_1  D_3  S_3  
     e( 34 - 34) =      1.39420  eV     1   --> A_1  D_1  S_1  
     e( 35 - 35) =      1.55525  eV     1   --> B_1  D_3  S_3  
     e( 36 - 36) =      1.59110  eV     1   --> B_2  D_4  S_4  
     e( 37 - 37) =      1.62802  eV     1   --> A_2  D_2  S_2  
     e( 38 - 38) =      1.86570  eV     1   --> B_1  D_3  S_3  
     e( 39 - 39) =      1.99946  eV     1   --> A_1  D_1  S_1  
     e( 40 - 40) =      2.28651  eV     1   --> B_2  D_4  S_4  
     e( 41 - 41) =      2.49431  eV     1   --> A_1  D_1  S_1  
     e( 42 - 42) =      2.97183  eV     1   --> A_1  D_1  S_1  
     e( 43 - 43) =      3.00276  eV     1   --> B_1  D_3  S_3  
     e( 44 - 44) =      3.28981  eV     1   --> B_2  D_4  S_4  
     e( 45 - 45) =      3.29049  eV     1   --> A_2  D_2  S_2  
     e( 46 - 46) =      3.47558  eV     1   --> B_1  D_3  S_3  
     e( 47 - 47) =      3.58686  eV     1   --> A_1  D_1  S_1  
     e( 48 - 48) =      3.62857  eV     1   --> A_2  D_2  S_2  
     e( 49 - 49) =      4.00120  eV     1   --> B_2  D_4  S_4  
     e( 50 - 50) =      4.02010  eV     1   --> B_1  D_3  S_3  
     e( 51 - 51) =      4.28610  eV     1   --> A_1  D_1  S_1  
     e( 52 - 52) =      4.56871  eV     1   --> A_2  D_2  S_2  
     e( 53 - 53) =      4.61842  eV     1   --> B_2  D_4  S_4  
     e( 54 - 54) =      4.73205  eV     1   --> A_1  D_1  S_1  
     e( 55 - 55) =      4.98106  eV     1   --> A_1  D_1  S_1  
     e( 56 - 56) =      5.11632  eV     1   --> B_1  D_3  S_3  
     e( 57 - 57) =      5.27429  eV     1   --> B_2  D_4  S_4  
     e( 58 - 58) =      5.37248  eV     1   --> A_2  D_2  S_2  
     e( 59 - 59) =      5.52545  eV     1   --> B_2  D_4  S_4  
     e( 60 - 60) =      5.79943  eV     1   --> A_2  D_2  S_2  

 **************************************************************************

 **************************************************************************

                    xk=(   0.09000,   0.00000,   0.00000  )

     Band symmetry, C_2v (mm2)  point group:

     e(  1 -  1) =    -21.76163  eV     1   --> A_1  D_1  S_1  
     e(  2 -  2) =    -20.67589  eV     1   --> B_2  D_4  S_4  
     e(  3 -  3) =    -18.90214  eV     1   --> A_1  D_1  S_1  
     e(  4 -  4) =    -17.28305  eV     1   --> B_2  D_4  S_4  
     e(  5 -  5) =    -16.84130  eV     1   --> B_2  D_4  S_4  
     e(  6 -  6) =    -16.32345  eV     1   --> A_1  D_1  S_1  
     e(  7 -  7) =    -15.03723  eV     1   --> B_2  D_4  S_4  
     e(  8 -  8) =    -14.82922  eV     1   --> A_1  D_1  S_1  
     e(  9 -  9) =    -14.33398  eV     1   --> B_2  D_4  S_4  
     e( 10 - 10) =    -12.83620  eV     1   --> A_1  D_1  S_1  
     e( 11 - 11) =    -12.21030  eV     1   --> A_1  D_1  S_1  
     e( 12 - 12) =    -11.94164  eV     1   --> B_2  D_4  S_4  
     e( 13 - 13) =    -11.18951  eV     1   --> B_2  D_4  S_4  
     e( 14 - 14) =    -10.09397  eV     1   --> A_1  D_1  S_1  
     e( 15 - 15) =     -9.88330  eV     1   --> B_2  D_4  S_4  
     e( 16 - 16) =     -9.83564  eV     1   --> B_1  D_3  S_3  
     e( 17 - 17) =     -9.43278  eV     1   --> A_1  D_1  S_1  
     e( 18 - 18) =     -8.61740  eV     1   --> A_2  D_2  S_2  
     e( 19 - 19) =     -7.96077  eV     1   --> B_2  D_4  S_4  
     e( 20 - 20) =     -7.74639  eV     1   --> A_1  D_1  S_1  
     e( 21 - 21) =     -6.68254  eV     1   --> B_1  D_3  S_3  
     e( 22 - 22) =     -6.55456  eV     1   --> A_1  D_1  S_1  
     e( 23 - 23) =     -6.29622  eV     1   --> B_2  D_4  S_4  
     e( 24 - 24) =     -5.02814  eV     1   --> A_2  D_2  S_2  
     e( 25 - 25) =     -4.45481  eV     1   --> A_2  D_2  S_2  
     e( 26 - 26) =     -3.84470  eV     1   --> B_1  D_3  S_3  
     e( 27 - 27) =     -1.81482  eV     1   --> B_1  D_3  S_3  
     e( 28 - 28) =     -1.13165  eV     1   --> A_2  D_2  S_2  
     e( 29 - 29) =     -0.90747  eV     1   --> A_2  D_2  S_2  
     e( 30 - 30) =      0.32161  eV     1   --> A_1  D_1  S_1  
     e( 31 - 31) =      0.60417  eV     1   --> B_2  D_4  S_4  
     e( 32 - 32) =      0.84744  eV     1   --> A_1  D_1  S_1  
     e( 33 - 33) =      1.22472  eV     1   --> B_1  D_3  S_3  
[...]
     e( 16 - 16) =     -9.23198  eV     1   --> A_1  D_1  S_1  
     e( 17 - 17) =     -8.91106  eV     1   --> B_2  D_4  S_4  
     e( 18 - 18) =     -8.85120  eV     1   --> A_1  D_1  S_1  
     e( 19 - 19) =     -8.37573  eV     1   --> B_1  D_3  S_3  
     e( 20 - 20) =     -8.25058  eV     1   --> A_1  D_1  S_1  
     e( 21 - 21) =     -8.05407  eV     1   --> A_2  D_2  S_2  
     e( 22 - 22) =     -8.02889  eV     1   --> B_2  D_4  S_4  
     e( 23 - 23) =     -7.20981  eV     1   --> A_2  D_2  S_2  
     e( 24 - 24) =     -6.90857  eV     1   --> B_1  D_3  S_3  
     e( 25 - 25) =     -5.64208  eV     1   --> B_1  D_3  S_3  
     e( 26 - 26) =     -5.45429  eV     1   --> A_2  D_2  S_2  
     e( 27 - 27) =     -0.64471  eV     1   --> A_2  D_2  S_2  
     e( 28 - 28) =     -0.42699  eV     1   --> B_1  D_3  S_3  
     e( 29 - 29) =      1.40766  eV     1   --> B_1  D_3  S_3  
     e( 30 - 30) =      1.80918  eV     1   --> A_2  D_2  S_2  
     e( 31 - 31) =      1.98288  eV     1   --> A_1  D_1  S_1  
     e( 32 - 32) =      2.17255  eV     1   --> B_2  D_4  S_4  
     e( 33 - 33) =      2.42487  eV     1   --> B_2  D_4  S_4  
     e( 34 - 34) =      2.54784  eV     1   --> A_1  D_1  S_1  
     e( 35 - 35) =      2.61678  eV     1   --> A_1  D_1  S_1  
     e( 36 - 36) =      2.96592  eV     1   --> B_2  D_4  S_4  
     e( 37 - 37) =      3.05877  eV     1   --> B_1  D_3  S_3  
     e( 38 - 38) =      3.14333  eV     1   --> A_2  D_2  S_2  
     e( 39 - 39) =      3.14757  eV     1   --> A_1  D_1  S_1  
     e( 40 - 40) =      3.31711  eV     1   --> B_2  D_4  S_4  
     e( 41 - 41) =      3.46325  eV     1   --> A_2  D_2  S_2  
     e( 42 - 42) =      3.54643  eV     1   --> B_2  D_4  S_4  
     e( 43 - 43) =      3.60533  eV     1   --> B_1  D_3  S_3  
     e( 44 - 44) =      3.62034  eV     1   --> B_1  D_3  S_3  
     e( 45 - 45) =      3.69235  eV     1   --> A_2  D_2  S_2  
     e( 46 - 46) =      3.70948  eV     1   --> A_1  D_1  S_1  
     e( 47 - 47) =      3.75425  eV     1   --> A_1  D_1  S_1  
     e( 48 - 48) =      4.01161  eV     1   --> B_2  D_4  S_4  
     e( 49 - 49) =      4.02785  eV     1   --> A_2  D_2  S_2  
     e( 50 - 50) =      4.15464  eV     1   --> B_2  D_4  S_4  
     e( 51 - 51) =      4.17917  eV     1   --> A_1  D_1  S_1  
     e( 52 - 52) =      4.19765  eV     1   --> B_1  D_3  S_3  
     e( 53 - 53) =      4.40286  eV     1   --> A_1  D_1  S_1  
     e( 54 - 54) =      4.53352  eV     1   --> B_2  D_4  S_4  
     e( 55 - 55) =      4.67960  eV     1   --> A_1  D_1  S_1  
     e( 56 - 56) =      4.90794  eV     1   --> B_1  D_3  S_3  
     e( 57 - 57) =      4.96950  eV     1   --> B_2  D_4  S_4  
     e( 58 - 58) =      5.03852  eV     1   --> B_2  D_4  S_4  
     e( 59 - 59) =      5.08512  eV     1   --> A_2  D_2  S_2  
     e( 60 - 60) =      5.20197  eV     1   --> A_1  D_1  S_1  

 **************************************************************************

 **************************************************************************

                    xk=(   0.48000,   0.00000,   0.00000  )

     Band symmetry, C_2v (mm2)  point group:

     e(  1 -  1) =    -20.50458  eV     1   --> A_1  D_1  S_1  
     e(  2 -  2) =    -20.28853  eV     1   --> B_2  D_4  S_4  
     e(  3 -  3) =    -19.41795  eV     1   --> B_2  D_4  S_4  
     e(  4 -  4) =    -19.21833  eV     1   --> A_1  D_1  S_1  
     e(  5 -  5) =    -17.73341  eV     1   --> A_1  D_1  S_1  
     e(  6 -  6) =    -17.57109  eV     1   --> B_2  D_4  S_4  
     e(  7 -  7) =    -14.97545  eV     1   --> B_2  D_4  S_4  
     e(  8 -  8) =    -14.82296  eV     1   --> A_1  D_1  S_1  
     e(  9 -  9) =    -12.64334  eV     1   --> A_1  D_1  S_1  
     e( 10 - 10) =    -12.45776  eV     1   --> B_2  D_4  S_4  
     e( 11 - 11) =    -10.66262  eV     1   --> B_2  D_4  S_4  
     e( 12 - 12) =    -10.31337  eV     1   --> A_1  D_1  S_1  
     e( 13 - 13) =     -9.56057  eV     1   --> B_2  D_4  S_4  
     e( 14 - 14) =     -9.53984  eV     1   --> A_1  D_1  S_1  
     e( 15 - 15) =     -9.27738  eV     1   --> B_2  D_4  S_4  
     e( 16 - 16) =     -9.26566  eV     1   --> A_1  D_1  S_1  
     e( 17 - 17) =     -8.91620  eV     1   --> B_2  D_4  S_4  
     e( 18 - 18) =     -8.86260  eV     1   --> A_1  D_1  S_1  
     e( 19 - 19) =     -8.34463  eV     1   --> B_1  D_3  S_3  
     e( 20 - 20) =     -8.23024  eV     1   --> A_1  D_1  S_1  
     e( 21 - 21) =     -8.08717  eV     1   --> A_2  D_2  S_2  
     e( 22 - 22) =     -8.05254  eV     1   --> B_2  D_4  S_4  
     e( 23 - 23) =     -7.18109  eV     1   --> A_2  D_2  S_2  
     e( 24 - 24) =     -6.93993  eV     1   --> B_1  D_3  S_3  
     e( 25 - 25) =     -5.62363  eV     1   --> B_1  D_3  S_3  
     e( 26 - 26) =     -5.47328  eV     1   --> A_2  D_2  S_2  
     e( 27 - 27) =     -0.62430  eV     1   --> A_2  D_2  S_2  
     e( 28 - 28) =     -0.45005  eV     1   --> B_1  D_3  S_3  
     e( 29 - 29) =      1.44802  eV     1   --> B_1  D_3  S_3  
     e( 30 - 30) =      1.76934  eV     1   --> A_2  D_2  S_2  
     e( 31 - 31) =      2.01662  eV     1   --> A_1  D_1  S_1  
     e( 32 - 32) =      2.18819  eV     1   --> B_2  D_4  S_4  
     e( 33 - 33) =      2.40456  eV     1   --> B_2  D_4  S_4  
     e( 34 - 34) =      2.54395  eV     1   --> A_1  D_1  S_1  
     e( 35 - 35) =      2.62473  eV     1   --> A_1  D_1  S_1  
     e( 36 - 36) =      2.92507  eV     1   --> B_2  D_4  S_4  
     e( 37 - 37) =      3.09715  eV     1   --> B_1  D_3  S_3  
     e( 38 - 38) =      3.18460  eV     1   --> A_1  D_1  S_1  
     e( 39 - 39) =      3.18930  eV     1   --> A_2  D_2  S_2  
     e( 40 - 40) =      3.35249  eV     1   --> B_2  D_4  S_4  
     e( 41 - 41) =      3.42234  eV     1   --> A_2  D_2  S_2  
     e( 42 - 42) =      3.50686  eV     1   --> B_2  D_4  S_4  
     e( 43 - 43) =      3.56050  eV     1   --> B_1  D_3  S_3  
     e( 44 - 44) =      3.65744  eV     1   --> B_1  D_3  S_3  
     e( 45 - 45) =      3.67076  eV     1   --> A_1  D_1  S_1  
     e( 46 - 46) =      3.73818  eV     1   --> A_2  D_2  S_2  
     e( 47 - 47) =      3.79056  eV     1   --> A_1  D_1  S_1  
     e( 48 - 48) =      3.98807  eV     1   --> A_2  D_2  S_2  
     e( 49 - 49) =      4.04453  eV     1   --> B_2  D_4  S_4  
     e( 50 - 50) =      4.11740  eV     1   --> B_2  D_4  S_4  
     e( 51 - 51) =      4.14721  eV     1   --> B_1  D_3  S_3  
     e( 52 - 52) =      4.21184  eV     1   --> A_1  D_1  S_1  
     e( 53 - 53) =      4.36546  eV     1   --> A_1  D_1  S_1  
     e( 54 - 54) =      4.49697  eV     1   --> B_2  D_4  S_4  
     e( 55 - 55) =      4.71005  eV     1   --> A_1  D_1  S_1  
     e( 56 - 56) =      4.94683  eV     1   --> B_1  D_3  S_3  
     e( 57 - 57) =      4.95501  eV     1   --> B_2  D_4  S_4  
     e( 58 - 58) =      5.05887  eV     1   --> B_2  D_4  S_4  
     e( 59 - 59) =      5.12321  eV     1   --> A_2  D_2  S_2  
     e( 60 - 60) =      5.21335  eV     1   --> A_1  D_1  S_1  

 **************************************************************************

 **************************************************************************

                    xk=(   0.48500,   0.00000,   0.00000  )

     Band symmetry, C_2v (mm2)  point group:

     e(  1 -  1) =    -20.47813  eV     1   --> A_1  D_1  S_1  
     e(  2 -  2) =    -20.31596  eV     1   --> B_2  D_4  S_4  
     e(  3 -  3) =    -19.39416  eV     1   --> B_2  D_4  S_4  
     e(  4 -  4) =    -19.24427  eV     1   --> A_1  D_1  S_1  
     e(  5 -  5) =    -17.71359  eV     1   --> A_1  D_1  S_1  
     e(  6 -  6) =    -17.59173  eV     1   --> B_2  D_4  S_4  
     e(  7 -  7) =    -14.95756  eV     1   --> B_2  D_4  S_4  
     e(  8 -  8) =    -14.84309  eV     1   --> A_1  D_1  S_1  
     e(  9 -  9) =    -12.62049  eV     1   --> A_1  D_1  S_1  
     e( 10 - 10) =    -12.48118  eV     1   --> B_2  D_4  S_4  
     e( 11 - 11) =    -10.61669  eV     1   --> B_2  D_4  S_4  
     e( 12 - 12) =    -10.35438  eV     1   --> A_1  D_1  S_1  
     e( 13 - 13) =     -9.52834  eV     1   --> B_2  D_4  S_4  
     e( 14 - 14) =     -9.50489  eV     1   --> A_1  D_1  S_1  
     e( 15 - 15) =     -9.29843  eV     1   --> A_1  D_1  S_1  
     e( 16 - 16) =     -9.29583  eV     1   --> B_2  D_4  S_4  
     e( 17 - 17) =     -8.91719  eV     1   --> B_2  D_4  S_4  
     e( 18 - 18) =     -8.87357  eV     1   --> A_1  D_1  S_1  
     e( 19 - 19) =     -8.31328  eV     1   --> B_1  D_3  S_3  
     e( 20 - 20) =     -8.20940  eV     1   --> A_1  D_1  S_1  
     e( 21 - 21) =     -8.12010  eV     1   --> A_2  D_2  S_2  
     e( 22 - 22) =     -8.07593  eV     1   --> B_2  D_4  S_4  
     e( 23 - 23) =     -7.15202  eV     1   --> A_2  D_2  S_2  
     e( 24 - 24) =     -6.97104  eV     1   --> B_1  D_3  S_3  
     e( 25 - 25) =     -5.60508  eV     1   --> B_1  D_3  S_3  
     e( 26 - 26) =     -5.49224  eV     1   --> A_2  D_2  S_2  
     e( 27 - 27) =     -0.60357  eV     1   --> A_2  D_2  S_2  
     e( 28 - 28) =     -0.47283  eV     1   --> B_1  D_3  S_3  
     e( 29 - 29) =      1.48835  eV     1   --> B_1  D_3  S_3  
     e( 30 - 30) =      1.72939  eV     1   --> A_2  D_2  S_2  
     e( 31 - 31) =      2.05000  eV     1   --> A_1  D_1  S_1  
     e( 32 - 32) =      2.19353  eV     1   --> B_2  D_4  S_4  
     e( 33 - 33) =      2.39502  eV     1   --> B_2  D_4  S_4  
     e( 34 - 34) =      2.51917  eV     1   --> A_1  D_1  S_1  
     e( 35 - 35) =      2.65469  eV     1   --> A_1  D_1  S_1  
     e( 36 - 36) =      2.88461  eV     1   --> B_2  D_4  S_4  
     e( 37 - 37) =      3.13580  eV     1   --> B_1  D_3  S_3  
     e( 38 - 38) =      3.22210  eV     1   --> A_1  D_1  S_1  
     e( 39 - 39) =      3.23422  eV     1   --> A_2  D_2  S_2  
     e( 40 - 40) =      3.38252  eV     1   --> A_2  D_2  S_2  
     e( 41 - 41) =      3.38500  eV     1   --> B_2  D_4  S_4  
     e( 42 - 42) =      3.47101  eV     1   --> B_2  D_4  S_4  
     e( 43 - 43) =      3.51522  eV     1   --> B_1  D_3  S_3  
     e( 44 - 44) =      3.63113  eV     1   --> A_1  D_1  S_1  
     e( 45 - 45) =      3.69521  eV     1   --> B_1  D_3  S_3  
     e( 46 - 46) =      3.78258  eV     1   --> A_2  D_2  S_2  
     e( 47 - 47) =      3.82852  eV     1   --> A_1  D_1  S_1  
     e( 48 - 48) =      3.95072  eV     1   --> A_2  D_2  S_2  
     e( 49 - 49) =      4.05381  eV     1   --> B_2  D_4  S_4  
     e( 50 - 50) =      4.09719  eV     1   --> B_1  D_3  S_3  
     e( 51 - 51) =      4.10448  eV     1   --> B_2  D_4  S_4  
     e( 52 - 52) =      4.24342  eV     1   --> A_1  D_1  S_1  
     e( 53 - 53) =      4.32908  eV     1   --> A_1  D_1  S_1  
     e( 54 - 54) =      4.46080  eV     1   --> B_2  D_4  S_4  
     e( 55 - 55) =      4.74138  eV     1   --> A_1  D_1  S_1  
     e( 56 - 56) =      4.92896  eV     1   --> B_2  D_4  S_4  
     e( 57 - 57) =      4.98608  eV     1   --> B_1  D_3  S_3  
     e( 58 - 58) =      5.09008  eV     1   --> B_2  D_4  S_4  
     e( 59 - 59) =      5.16106  eV     1   --> A_2  D_2  S_2  
     e( 60 - 60) =      5.22307  eV     1   --> A_1  D_1  S_1  

 **************************************************************************

 **************************************************************************

                    xk=(   0.49000,   0.00000,   0.00000  )

     Band symmetry, C_2v (mm2)  point group:

     e(  1 -  1) =    -20.45149  eV     1   --> A_1  D_1  S_1  
     e(  2 -  2) =    -20.34332  eV     1   --> B_2  D_4  S_4  
     e(  3 -  3) =    -19.36998  eV     1   --> B_2  D_4  S_4  
     e(  4 -  4) =    -19.26997  eV     1   --> A_1  D_1  S_1  
     e(  5 -  5) =    -17.69360  eV     1   --> A_1  D_1  S_1  
     e(  6 -  6) =    -17.61231  eV     1   --> B_2  D_4  S_4  
     e(  7 -  7) =    -14.93931  eV     1   --> B_2  D_4  S_4  
     e(  8 -  8) =    -14.86295  eV     1   --> A_1  D_1  S_1  
     e(  9 -  9) =    -12.59751  eV     1   --> A_1  D_1  S_1  
     e( 10 - 10) =    -12.50458  eV     1   --> B_2  D_4  S_4  
     e( 11 - 11) =    -10.57132  eV     1   --> B_2  D_4  S_4  
     e( 12 - 12) =    -10.39628  eV     1   --> A_1  D_1  S_1  
     e( 13 - 13) =     -9.49700  eV     1   --> B_2  D_4  S_4  
     e( 14 - 14) =     -9.47358  eV     1   --> A_1  D_1  S_1  
     e( 15 - 15) =     -9.32862  eV     1   --> A_1  D_1  S_1  
     e( 16 - 16) =     -9.31743  eV     1   --> B_2  D_4  S_4  
     e( 17 - 17) =     -8.91472  eV     1   --> B_2  D_4  S_4  
     e( 18 - 18) =     -8.88401  eV     1   --> A_1  D_1  S_1  
     e( 19 - 19) =     -8.28167  eV     1   --> B_1  D_3  S_3  
     e( 20 - 20) =     -8.18811  eV     1   --> A_1  D_1  S_1  
     e( 21 - 21) =     -8.15285  eV     1   --> A_2  D_2  S_2  
     e( 22 - 22) =     -8.09903  eV     1   --> B_2  D_4  S_4  
     e( 23 - 23) =     -7.12261  eV     1   --> A_2  D_2  S_2  
     e( 24 - 24) =     -7.00191  eV     1   --> B_1  D_3  S_3  
     e( 25 - 25) =     -5.58643  eV     1   --> B_1  D_3  S_3  
     e( 26 - 26) =     -5.51118  eV     1   --> A_2  D_2  S_2  
     e( 27 - 27) =     -0.58253  eV     1   --> A_2  D_2  S_2  
     e( 28 - 28) =     -0.49535  eV     1   --> B_1  D_3  S_3  
     e( 29 - 29) =      1.52865  eV     1   --> B_1  D_3  S_3  
     e( 30 - 30) =      1.68937  eV     1   --> A_2  D_2  S_2  
     e( 31 - 31) =      2.08270  eV     1   --> A_1  D_1  S_1  
     e( 32 - 32) =      2.18636  eV     1   --> B_2  D_4  S_4  
     e( 33 - 33) =      2.39845  eV     1   --> B_2  D_4  S_4  
     e( 34 - 34) =      2.49030  eV     1   --> A_1  D_1  S_1  
     e( 35 - 35) =      2.69024  eV     1   --> A_1  D_1  S_1  
     e( 36 - 36) =      2.84458  eV     1   --> B_2  D_4  S_4  
     e( 37 - 37) =      3.17465  eV     1   --> B_1  D_3  S_3  
     e( 38 - 38) =      3.25995  eV     1   --> A_1  D_1  S_1  
     e( 39 - 39) =      3.27510  eV     1   --> A_2  D_2  S_2  
     e( 40 - 40) =      3.34684  eV     1   --> A_2  D_2  S_2  
     e( 41 - 41) =      3.39801  eV     1   --> B_2  D_4  S_4  
     e( 42 - 42) =      3.45552  eV     1   --> B_2  D_4  S_4  
     e( 43 - 43) =      3.47003  eV     1   --> B_1  D_3  S_3  
     e( 44 - 44) =      3.59177  eV     1   --> A_1  D_1  S_1  
     e( 45 - 45) =      3.73294  eV     1   --> B_1  D_3  S_3  
     e( 46 - 46) =      3.82019  eV     1   --> A_2  D_2  S_2  
     e( 47 - 47) =      3.86703  eV     1   --> A_1  D_1  S_1  
     e( 48 - 48) =      3.92104  eV     1   --> A_2  D_2  S_2  
     e( 49 - 49) =      4.02247  eV     1   --> B_2  D_4  S_4  
     e( 50 - 50) =      4.04784  eV     1   --> B_1  D_3  S_3  
     e( 51 - 51) =      4.13278  eV     1   --> B_2  D_4  S_4  
     e( 52 - 52) =      4.26374  eV     1   --> A_1  D_1  S_1  
     e( 53 - 53) =      4.30426  eV     1   --> A_1  D_1  S_1  
     e( 54 - 54) =      4.42504  eV     1   --> B_2  D_4  S_4  
     e( 55 - 55) =      4.77314  eV     1   --> A_1  D_1  S_1  
     e( 56 - 56) =      4.89944  eV     1   --> B_2  D_4  S_4  
     e( 57 - 57) =      5.02566  eV     1   --> B_1  D_3  S_3  
     e( 58 - 58) =      5.12405  eV     1   --> B_2  D_4  S_4  
     e( 59 - 59) =      5.18246  eV     1   --> A_2  D_2  S_2  
     e( 60 - 60) =      5.20706  eV     1   --> A_2  D_2  S_2  

 **************************************************************************

 **************************************************************************

                    xk=(   0.49500,   0.00000,   0.00000  )

     Band symmetry, C_2v (mm2)  point group:

     e(  1 -  1) =    -20.42468  eV     1   --> A_1  D_1  S_1  
     e(  2 -  2) =    -20.37057  eV     1   --> B_2  D_4  S_4  
     e(  3 -  3) =    -19.34544  eV     1   --> B_2  D_4  S_4  
     e(  4 -  4) =    -19.29541  eV     1   --> A_1  D_1  S_1  
     e(  5 -  5) =    -17.67346  eV     1   --> A_1  D_1  S_1  
     e(  6 -  6) =    -17.63280  eV     1   --> B_2  D_4  S_4  
     e(  7 -  7) =    -14.92071  eV     1   --> B_2  D_4  S_4  
     e(  8 -  8) =    -14.88251  eV     1   --> A_1  D_1  S_1  
     e(  9 -  9) =    -12.57441  eV     1   --> A_1  D_1  S_1  
     e( 10 - 10) =    -12.52792  eV     1   --> B_2  D_4  S_4  
     e( 11 - 11) =    -10.52654  eV     1   --> B_2  D_4  S_4  
     e( 12 - 12) =    -10.43898  eV     1   --> A_1  D_1  S_1  
     e( 13 - 13) =     -9.46849  eV     1   --> B_2  D_4  S_4  
     e( 14 - 14) =     -9.45106  eV     1   --> A_1  D_1  S_1  
     e( 15 - 15) =     -9.35132  eV     1   --> A_1  D_1  S_1  
     e( 16 - 16) =     -9.33951  eV     1   --> B_2  D_4  S_4  
     e( 17 - 17) =     -8.90955  eV     1   --> B_2  D_4  S_4  
     e( 18 - 18) =     -8.89370  eV     1   --> A_1  D_1  S_1  
     e( 19 - 19) =     -8.24982  eV     1   --> B_1  D_3  S_3  
     e( 20 - 20) =     -8.18540  eV     1   --> A_2  D_2  S_2  
     e( 21 - 21) =     -8.16639  eV     1   --> A_1  D_1  S_1  
     e( 22 - 22) =     -8.12183  eV     1   --> B_2  D_4  S_4  
     e( 23 - 23) =     -7.09287  eV     1   --> A_2  D_2  S_2  
     e( 24 - 24) =     -7.03251  eV     1   --> B_1  D_3  S_3  
     e( 25 - 25) =     -5.56771  eV     1   --> B_1  D_3  S_3  
     e( 26 - 26) =     -5.53008  eV     1   --> A_2  D_2  S_2  
     e( 27 - 27) =     -0.56118  eV     1   --> A_2  D_2  S_2  
     e( 28 - 28) =     -0.51758  eV     1   --> B_1  D_3  S_3  
     e( 29 - 29) =      1.56891  eV     1   --> B_1  D_3  S_3  
     e( 30 - 30) =      1.64928  eV     1   --> A_2  D_2  S_2  
     e( 31 - 31) =      2.11413  eV     1   --> A_1  D_1  S_1  
     e( 32 - 32) =      2.16838  eV     1   --> B_2  D_4  S_4  
     e( 33 - 33) =      2.41312  eV     1   --> B_2  D_4  S_4  
     e( 34 - 34) =      2.46168  eV     1   --> A_1  D_1  S_1  
     e( 35 - 35) =      2.72764  eV     1   --> A_1  D_1  S_1  
     e( 36 - 36) =      2.80502  eV     1   --> B_2  D_4  S_4  
     e( 37 - 37) =      3.21349  eV     1   --> B_1  D_3  S_3  
     e( 38 - 38) =      3.28405  eV     1   --> A_2  D_2  S_2  
     e( 39 - 39) =      3.29800  eV     1   --> A_1  D_1  S_1  
     e( 40 - 40) =      3.34324  eV     1   --> A_2  D_2  S_2  
     e( 41 - 41) =      3.37217  eV     1   --> B_2  D_4  S_4  
     e( 42 - 42) =      3.42514  eV     1   --> B_1  D_3  S_3  
     e( 43 - 43) =      3.47969  eV     1   --> B_2  D_4  S_4  
     e( 44 - 44) =      3.55296  eV     1   --> A_1  D_1  S_1  
     e( 45 - 45) =      3.77008  eV     1   --> B_1  D_3  S_3  
     e( 46 - 46) =      3.82970  eV     1   --> A_2  D_2  S_2  
     e( 47 - 47) =      3.90591  eV     1   --> A_1  D_1  S_1  
     e( 48 - 48) =      3.92030  eV     1   --> A_2  D_2  S_2  
     e( 49 - 49) =      3.98416  eV     1   --> B_2  D_4  S_4  
     e( 50 - 50) =      3.99974  eV     1   --> B_1  D_3  S_3  
     e( 51 - 51) =      4.16855  eV     1   --> B_2  D_4  S_4  
     e( 52 - 52) =      4.24113  eV     1   --> A_1  D_1  S_1  
     e( 53 - 53) =      4.32287  eV     1   --> A_1  D_1  S_1  
     e( 54 - 54) =      4.38979  eV     1   --> B_2  D_4  S_4  
     e( 55 - 55) =      4.80507  eV     1   --> A_1  D_1  S_1  
     e( 56 - 56) =      4.86853  eV     1   --> B_2  D_4  S_4  
     e( 57 - 57) =      5.06555  eV     1   --> B_1  D_3  S_3  
     e( 58 - 58) =      5.14585  eV     1   --> A_2  D_2  S_2  
     e( 59 - 59) =      5.15838  eV     1   --> B_2  D_4  S_4  
     e( 60 - 60) =      5.21726  eV     1   --> A_1  D_1  S_1  

 **************************************************************************

 **************************************************************************

                    xk=(   0.50000,   0.00000,   0.00000  )

     zone border point and non-symmorphic group 
     symmetry decomposition not available

 **************************************************************************
 
     BANDS        :   5m 5.09s CPU   5m49.19s WALL

 
   This run was terminated on:  11:19:56  10Mar2022            

=------------------------------------------------------------------------------=
   JOB DONE.
=------------------------------------------------------------------------------=
