
     Program PWSCF v.6.7MaX starts on  9Feb2022 at 13:21: 1 

     This program is part of the open-source Quantum ESPRESSO suite
     for quantum simulation of materials; please cite
         "P. Giannozzi et al., J. Phys.:Condens. Matter 21 395502 (2009);
         "P. Giannozzi et al., J. Phys.:Condens. Matter 29 465901 (2017);
          URL http://www.quantum-espresso.org", 
     in publications or presentations arising from this work. More details at
     http://www.quantum-espresso.org/quote

     Parallel version (MPI), running on    30 processors

     MPI processes distributed on     1 nodes
     R & G space division:  proc/nbgrp/npool/nimage =      30
     Waiting for input...
     Reading input from standard input

     Current dimensions of program PWSCF are:
     Max number of different atomic species (ntypx) = 10
     Max number of k-points (npk) =  40000
     Max angular momentum in pseudopotentials (lmaxx) =  3
     file C.pbe-rrkjus.UPF: wavefunction(s)  2S 2P renormalized
     file H.pbe-rrkjus.UPF: wavefunction(s)  1S renormalized
     Message from routine set_cutoff:
     ecutrho < 4*ecutwfc, are you sure?

     Subspace diagonalization in iterative solution of the eigenvalue problem:
     one sub-group per band group will be used
     scalapack distributed-memory algorithm (size of sub-group:  5*  5 procs)

 
     Parallelization info
     --------------------
     sticks:   dense  smooth     PW     G-vecs:    dense   smooth      PW
     Min         178     178     64                17638    17638    3824
     Max         179     179     65                17643    17643    3831
     Sum        5363    5363   1925               529227   529227  114757
 


     bravais-lattice index     =            8
     lattice parameter (alat)  =       8.1391  a.u.
     unit-cell volume          =    7063.0417 (a.u.)^3
     number of atoms/cell      =           14
     number of atomic types    =            2
     number of electrons       =        44.00
     number of Kohn-Sham states=           22
     kinetic-energy cutoff     =      90.0000  Ry
     charge density cutoff     =     270.0000  Ry
     scf convergence threshold =      1.0E-08
     mixing beta               =       0.5000
     number of iterations used =            8  local-TF  mixing
     Exchange-correlation=  SLA  PW   PBE  PBE
                           (   1   4   3   4   0   0   0)

     celldm(1)=   8.139086  celldm(2)=   3.761291  celldm(3)=   3.482795
     celldm(4)=   0.000000  celldm(5)=   0.000000  celldm(6)=   0.000000

     crystal axes: (cart. coord. in units of alat)
               a(1) = (   1.000000   0.000000   0.000000 )  
               a(2) = (   0.000000   3.761291   0.000000 )  
               a(3) = (   0.000000   0.000000   3.482795 )  

     reciprocal axes: (cart. coord. in units 2 pi/alat)
               b(1) = (  1.000000  0.000000  0.000000 )  
               b(2) = (  0.000000  0.265866  0.000000 )  
               b(3) = (  0.000000  0.000000  0.287126 )  


     PseudoPot. # 1 for C  read from file:
     ../Pseudo/C.pbe-rrkjus.UPF
     MD5 check sum: 00fb224312de0c5b6853bd333518df6f
     Pseudo is Ultrasoft, Zval =  4.0
     Generated by new atomic code, or converted to UPF format
     Using radial grid of  627 points,  4 beta functions with: 
                l(1) =   0
                l(2) =   0
                l(3) =   1
                l(4) =   1
     Q(r) pseudized with 0 coefficients 


     PseudoPot. # 2 for H  read from file:
     ../Pseudo/H.pbe-rrkjus.UPF
     MD5 check sum: 7cc9d459525c9a0585f487a71c3c9563
     Pseudo is Ultrasoft, Zval =  1.0
     Generated by new atomic code, or converted to UPF format
     Using radial grid of 1061 points,  2 beta functions with: 
                l(1) =   0
                l(2) =   0
     Q(r) pseudized with 0 coefficients 


     atomic species   valence    mass     pseudopotential
        C              4.00    12.01070     C ( 1.00)
        H              1.00     1.00794     H ( 1.00)

      4 Sym. Ops. (no inversion) found



   Cartesian axes

     site n.     atom                  positions (alat units)
         1           C   tau(   1) = (   0.6589723   1.1723387   1.7413977  )
         2           C   tau(   2) = (   0.8334727   1.4511874   1.7413977  )
         3           C   tau(   3) = (   0.3410277   1.1723387   1.7413977  )
         4           C   tau(   4) = (   0.6668963   1.7373978   1.7413977  )
         5           C   tau(   5) = (   0.8334668   2.0235924   1.7413977  )
         6           C   tau(   6) = (   0.1665273   1.4511874   1.7413977  )
         7           C   tau(   7) = (   0.3331037   1.7373978   1.7413977  )
         8           C   tau(   8) = (   0.6589810   2.3024442   1.7413977  )
         9           C   tau(   9) = (   0.1665332   2.0235924   1.7413977  )
        10           C   tau(  10) = (   0.3410190   2.3024442   1.7413977  )
        11           H   tau(  11) = (   0.7778941   0.9496575   1.7413977  )
        12           H   tau(  12) = (   0.2221059   0.9496575   1.7413977  )
        13           H   tau(  13) = (   0.7779967   2.5250248   1.7413977  )
        14           H   tau(  14) = (   0.2220033   2.5250248   1.7413977  )

     number of k points=    21
                       cart. coord. in units 2pi/alat
        k(    1) = (   0.0000000   0.0000000   0.0000000), wk =   0.0500000
        k(    2) = (   0.0250000   0.0000000   0.0000000), wk =   0.1000000
        k(    3) = (   0.0500000   0.0000000   0.0000000), wk =   0.1000000
        k(    4) = (   0.0750000   0.0000000   0.0000000), wk =   0.1000000
        k(    5) = (   0.1000000   0.0000000   0.0000000), wk =   0.1000000
        k(    6) = (   0.1250000   0.0000000   0.0000000), wk =   0.1000000
        k(    7) = (   0.1500000   0.0000000   0.0000000), wk =   0.1000000
        k(    8) = (   0.1750000   0.0000000   0.0000000), wk =   0.1000000
        k(    9) = (   0.2000000   0.0000000   0.0000000), wk =   0.1000000
        k(   10) = (   0.2250000   0.0000000   0.0000000), wk =   0.1000000
        k(   11) = (   0.2500000   0.0000000   0.0000000), wk =   0.1000000
        k(   12) = (   0.2750000   0.0000000   0.0000000), wk =   0.1000000
        k(   13) = (   0.3000000   0.0000000   0.0000000), wk =   0.1000000
        k(   14) = (   0.3250000   0.0000000   0.0000000), wk =   0.1000000
        k(   15) = (   0.3500000   0.0000000   0.0000000), wk =   0.1000000
        k(   16) = (   0.3750000   0.0000000   0.0000000), wk =   0.1000000
        k(   17) = (   0.4000000   0.0000000   0.0000000), wk =   0.1000000
        k(   18) = (   0.4250000   0.0000000   0.0000000), wk =   0.1000000
        k(   19) = (   0.4500000   0.0000000   0.0000000), wk =   0.1000000
        k(   20) = (   0.4750000   0.0000000   0.0000000), wk =   0.1000000
        k(   21) = (  -0.5000000   0.0000000   0.0000000), wk =   0.0500000

     Dense  grid:   529227 G-vectors     FFT dimensions: (  45, 162, 150)

     Estimated max dynamical RAM per process >      60.01 MB

     Estimated total dynamical RAM >       1.76 GB

     Initial potential from superposition of free atoms

     starting charge   43.61466, renormalised to   44.00000

     negative rho (up, down):  6.481E-04 0.000E+00
     Starting wfcs are   44 randomized atomic wfcs

     total cpu time spent up to now is        9.8 secs

     Self-consistent Calculation

     iteration #  1     ecut=    90.00 Ry     beta= 0.50
     Davidson diagonalization with overlap
     ethr =  1.00E-02,  avg # of iterations =  2.0

     total cpu time spent up to now is       30.9 secs

     total energy              =    -119.16610181 Ry
     estimated scf accuracy    <       3.48689551 Ry

     iteration #  2     ecut=    90.00 Ry     beta= 0.50
     Davidson diagonalization with overlap
     ethr =  7.92E-03,  avg # of iterations =  1.0

     negative rho (up, down):  3.203E-05 0.000E+00

     total cpu time spent up to now is       43.1 secs

     total energy              =    -118.30878122 Ry
     estimated scf accuracy    <       1.73344805 Ry

     iteration #  3     ecut=    90.00 Ry     beta= 0.50
     Davidson diagonalization with overlap
     ethr =  3.94E-03,  avg # of iterations =  3.0

     total cpu time spent up to now is       59.7 secs

     total energy              =    -118.66396632 Ry
     estimated scf accuracy    <       0.26278265 Ry

     iteration #  4     ecut=    90.00 Ry     beta= 0.50
     Davidson diagonalization with overlap
     ethr =  5.97E-04,  avg # of iterations =  2.2

     negative rho (up, down):  1.434E-04 0.000E+00

     total cpu time spent up to now is       74.8 secs

     total energy              =    -118.61901256 Ry
     estimated scf accuracy    <       0.16690369 Ry

     iteration #  5     ecut=    90.00 Ry     beta= 0.50
     Davidson diagonalization with overlap
     ethr =  3.79E-04,  avg # of iterations =  2.2

     negative rho (up, down):  5.150E-05 0.000E+00

     total cpu time spent up to now is       90.1 secs

     total energy              =    -118.62443105 Ry
     estimated scf accuracy    <       0.07372264 Ry

     iteration #  6     ecut=    90.00 Ry     beta= 0.50
     Davidson diagonalization with overlap
     ethr =  1.68E-04,  avg # of iterations =  1.0

     negative rho (up, down):  8.336E-02 0.000E+00

     total cpu time spent up to now is      104.3 secs

     total energy              =    -118.60119069 Ry
     estimated scf accuracy    <       0.05960058 Ry

     iteration #  7     ecut=    90.00 Ry     beta= 0.50
     Davidson diagonalization with overlap
     ethr =  1.35E-04,  avg # of iterations =  2.0

     negative rho (up, down):  8.632E-02 0.000E+00

     total cpu time spent up to now is      122.4 secs

     total energy              =    -118.60234392 Ry
     estimated scf accuracy    <       0.03208951 Ry

     iteration #  8     ecut=    90.00 Ry     beta= 0.50
     Davidson diagonalization with overlap
     ethr =  7.29E-05,  avg # of iterations =  1.2

     negative rho (up, down):  8.587E-02 0.000E+00

     total cpu time spent up to now is      137.1 secs

     total energy              =    -118.59363434 Ry
     estimated scf accuracy    <       0.01938358 Ry

     iteration #  9     ecut=    90.00 Ry     beta= 0.50
     Davidson diagonalization with overlap
     ethr =  4.41E-05,  avg # of iterations =  3.1

     negative rho (up, down):  6.295E-02 0.000E+00

     total cpu time spent up to now is      157.5 secs

     total energy              =    -118.59687183 Ry
     estimated scf accuracy    <       0.00594291 Ry

     iteration # 10     ecut=    90.00 Ry     beta= 0.50
     Davidson diagonalization with overlap
     ethr =  1.35E-05,  avg # of iterations =  1.3

     negative rho (up, down):  1.998E-02 0.000E+00

     total cpu time spent up to now is      174.7 secs

     total energy              =    -118.59467287 Ry
     estimated scf accuracy    <       0.00392840 Ry

     iteration # 11     ecut=    90.00 Ry     beta= 0.50
     Davidson diagonalization with overlap
     ethr =  8.93E-06,  avg # of iterations =  3.1

     negative rho (up, down):  1.817E-02 0.000E+00

     total cpu time spent up to now is      199.9 secs

     total energy              =    -118.59582860 Ry
     estimated scf accuracy    <       0.00131246 Ry

     iteration # 12     ecut=    90.00 Ry     beta= 0.50
     Davidson diagonalization with overlap
     ethr =  2.98E-06,  avg # of iterations =  1.2

     negative rho (up, down):  6.983E-03 0.000E+00

     total cpu time spent up to now is      217.1 secs

     total energy              =    -118.59563787 Ry
     estimated scf accuracy    <       0.00042678 Ry

     iteration # 13     ecut=    90.00 Ry     beta= 0.50
     Davidson diagonalization with overlap
     ethr =  9.70E-07,  avg # of iterations =  3.3

     negative rho (up, down):  5.278E-03 0.000E+00

     total cpu time spent up to now is      239.4 secs

     total energy              =    -118.59575503 Ry
     estimated scf accuracy    <       0.00005430 Ry

     iteration # 14     ecut=    90.00 Ry     beta= 0.50
     Davidson diagonalization with overlap
     ethr =  1.23E-07,  avg # of iterations =  2.7

     negative rho (up, down):  1.023E-03 0.000E+00

     total cpu time spent up to now is      262.2 secs

     total energy              =    -118.59572586 Ry
     estimated scf accuracy    <       0.00004325 Ry

     iteration # 15     ecut=    90.00 Ry     beta= 0.50
     Davidson diagonalization with overlap
     ethr =  9.83E-08,  avg # of iterations =  4.8

     negative rho (up, down):  8.393E-04 0.000E+00

     total cpu time spent up to now is      293.6 secs

     total energy              =    -118.59573817 Ry
     estimated scf accuracy    <       0.00004421 Ry

     iteration # 16     ecut=    90.00 Ry     beta= 0.50
     Davidson diagonalization with overlap
     ethr =  9.83E-08,  avg # of iterations =  2.0

     negative rho (up, down):  6.427E-04 0.000E+00

     total cpu time spent up to now is      314.8 secs

     total energy              =    -118.59573839 Ry
     estimated scf accuracy    <       0.00000548 Ry

     iteration # 17     ecut=    90.00 Ry     beta= 0.50
     Davidson diagonalization with overlap
     ethr =  1.24E-08,  avg # of iterations =  4.3

     negative rho (up, down):  5.743E-04 0.000E+00

     total cpu time spent up to now is      342.9 secs

     total energy              =    -118.59574053 Ry
     estimated scf accuracy    <       0.00000030 Ry

     iteration # 18     ecut=    90.00 Ry     beta= 0.50
     Davidson diagonalization with overlap
     ethr =  6.73E-10,  avg # of iterations =  2.7

     negative rho (up, down):  5.245E-04 0.000E+00

     total cpu time spent up to now is      370.1 secs

     total energy              =    -118.59574032 Ry
     estimated scf accuracy    <       0.00000033 Ry

     iteration # 19     ecut=    90.00 Ry     beta= 0.50
     Davidson diagonalization with overlap
     ethr =  6.73E-10,  avg # of iterations =  3.0

     negative rho (up, down):  5.114E-04 0.000E+00

     total cpu time spent up to now is      394.0 secs

     total energy              =    -118.59574043 Ry
     estimated scf accuracy    <       0.00000002 Ry

     iteration # 20     ecut=    90.00 Ry     beta= 0.50
     Davidson diagonalization with overlap
     ethr =  3.74E-11,  avg # of iterations =  3.1

     negative rho (up, down):  5.102E-04 0.000E+00

     total cpu time spent up to now is      417.2 secs

     total energy              =    -118.59574044 Ry
     estimated scf accuracy    <       0.00000001 Ry

     iteration # 21     ecut=    90.00 Ry     beta= 0.50
     Davidson diagonalization with overlap
     ethr =  2.88E-11,  avg # of iterations =  2.0

     negative rho (up, down):  5.115E-04 0.000E+00

     total cpu time spent up to now is      432.6 secs

     End of self-consistent calculation

          k = 0.0000 0.0000 0.0000 (101825 PWs)   bands (ev):

   -21.7662 -20.2767 -18.0432 -16.7150 -15.8738 -15.6489 -15.3180 -13.1208
   -12.9345 -12.1620 -10.9231 -10.5892 -10.0234  -9.8427  -8.7228  -8.2123
    -8.0617  -6.8367  -6.3238  -5.7469  -4.6312  -3.1428

          k = 0.0250 0.0000 0.0000 (101845 PWs)   bands (ev):

   -21.7626 -20.2733 -18.0413 -16.7711 -15.9084 -15.5878 -15.2960 -13.1509
   -12.9152 -12.1408 -10.9092 -10.6137 -10.0090  -9.8385  -8.7145  -8.2084
    -8.0740  -6.8407  -6.3321  -5.7453  -4.6579  -3.2227

          k = 0.0500 0.0000 0.0000 (101877 PWs)   bands (ev):

   -21.7519 -20.2631 -18.0360 -16.9114 -15.9992 -15.4321 -15.2423 -13.2329
   -12.8586 -12.0848 -10.8679 -10.6806  -9.9717  -9.8256  -8.6907  -8.1965
    -8.1103  -6.8533  -6.3565  -5.7403  -4.7351  -3.3841

          k = 0.0750 0.0000 0.0000 (101919 PWs)   bands (ev):

   -21.7340 -20.2462 -18.0280 -17.0927 -16.1246 -15.2245 -15.1756 -13.3506
   -12.7675 -12.0092 -10.8005 -10.7769  -9.9217  -9.8042  -8.6541  -8.1769
    -8.1687  -6.8760  -6.3968  -5.7324  -4.8544  -3.5680

          k = 0.1000 0.0000 0.0000 (101897 PWs)   bands (ev):

   -21.7090 -20.2226 -18.0197 -17.2880 -16.2706 -15.1060 -14.9901 -13.4896
   -12.6465 -11.9256 -10.8923 -10.7097  -9.8658  -9.7743  -8.6087  -8.2466
    -8.1493  -6.9111  -6.4519  -5.7219  -5.0059  -3.7598

          k = 0.1250 0.0000 0.0000 (101905 PWs)   bands (ev):

   -21.6768 -20.1923 -18.0172 -17.4800 -16.4292 -15.0372 -14.7412 -13.6401
   -12.5006 -11.8402 -11.0193 -10.5991  -9.8069  -9.7359  -8.5588  -8.3410
    -8.1140  -6.9609  -6.5209  -5.7102  -5.1792  -3.9550

          k = 0.1500 0.0000 0.0000 (101833 PWs)   bands (ev):

   -21.6376 -20.1554 -18.0381 -17.6456 -16.5957 -14.9695 -14.4857 -13.7942
   -12.3360 -11.7548 -11.1522 -10.4731  -9.7457  -9.6890  -8.5092  -8.4488
    -8.0709  -7.0272  -6.6025  -5.7012  -5.3631  -4.1515

          k = 0.1750 0.0000 0.0000 (101783 PWs)   bands (ev):

   -21.5912 -20.1119 -18.1199 -17.7445 -16.7668 -14.9025 -14.2394 -13.9358
   -12.1600 -11.6694 -11.2848 -10.3366  -9.6818  -9.6336  -8.5671  -8.4639
    -8.0201  -7.1116  -6.6952  -5.7173  -5.5299  -4.3483

          k = 0.2000 0.0000 0.0000 (101769 PWs)   bands (ev):

   -21.5378 -20.0619 -18.2705 -17.7675 -16.9402 -14.8354 -14.1694 -13.8972
   -11.9871 -11.5826 -11.4040 -10.1942  -9.6147  -9.5698  -8.6932  -8.4267
    -7.9617  -7.2149  -6.7976  -5.8400  -5.5941  -4.5443

          k = 0.2250 0.0000 0.0000 (101783 PWs)   bands (ev):

   -21.4773 -20.0055 -18.4522 -17.7517 -17.1139 -14.7675 -14.3038 -13.6501
   -11.8635 -11.4932 -11.4648 -10.0503  -9.5441  -9.4976  -8.8241  -8.4009
    -7.8957  -7.3372  -6.9081  -6.0343  -5.5881  -4.7389

          k = 0.2500 0.0000 0.0000 (101761 PWs)   bands (ev):

   -21.4098 -19.9428 -18.6424 -17.7196 -17.2867 -14.6984 -14.4530 -13.3843
   -11.8760 -11.3999 -11.3816  -9.9096  -9.4694  -9.4170  -8.9567  -8.3892
    -7.8223  -7.4781  -7.0253  -6.2420  -5.5681  -4.9314

          k = 0.2750 0.0000 0.0000 (101789 PWs)   bands (ev):

   -21.3354 -19.8742 -18.8330 -17.6792 -17.4572 -14.6278 -14.5995 -13.1175
   -11.9791 -11.3016 -11.2009  -9.7775  -9.3905  -9.3282  -9.0864  -8.3934
    -7.7416  -7.6366  -7.1476  -6.4519  -5.5443  -5.1213

          k = 0.3000 0.0000 0.0000 (101780 PWs)   bands (ev):

   -21.2540 -19.7997 -19.0209 -17.6343 -17.6244 -14.7396 -14.5560 -12.8542
   -12.1047 -11.1977 -10.9912  -9.6641  -9.3074  -9.2312  -9.2040  -8.4152
    -7.8109  -7.6537  -7.2735  -6.6607  -5.5192  -5.3078

          k = 0.3250 0.0000 0.0000 (101754 PWs)   bands (ev):

   -21.1659 -19.7199 -19.2045 -17.7872 -17.5872 -14.8712 -14.4837 -12.5977
   -12.2333 -11.0879 -10.7727  -9.5962  -9.2823  -9.2202  -9.1261  -8.4555
    -7.9991  -7.5589  -7.4017  -6.8667  -5.4942  -5.4905

          k = 0.3500 0.0000 0.0000 (101782 PWs)   bands (ev):

   -21.0710 -19.6354 -19.3829 -17.9445 -17.5398 -14.9921 -14.4117 -12.3580
   -12.3516 -10.9732 -10.5524  -9.6170  -9.2768  -9.1294  -9.0130  -8.5146
    -8.1985  -7.5306  -7.4575  -7.0686  -5.6688  -5.4703

          k = 0.3750 0.0000 0.0000 (101756 PWs)   bands (ev):

   -20.9696 -19.5555 -19.5472 -18.0950 -17.4941 -15.1004 -14.3417 -12.4747
   -12.1202 -10.8564 -10.3344  -9.6941  -9.2163  -9.0361  -8.8920  -8.5920
    -8.4056  -7.6582  -7.3500  -7.2656  -5.8417  -5.4485

          k = 0.4000 0.0000 0.0000 (101800 PWs)   bands (ev):

   -20.8620 -19.7216 -19.4569 -18.2365 -17.4521 -15.1937 -14.2761 -12.5798
   -11.9090 -10.7451 -10.1220  -9.7708  -9.1505  -8.9420  -8.7633  -8.6865
    -8.6151  -7.7822  -7.4571  -7.2372  -6.0084  -5.4294

          k = 0.4250 0.0000 0.0000 (101842 PWs)   bands (ev):

   -20.7491 -19.8802 -19.3677 -18.3658 -17.4160 -15.2699 -14.2181 -12.6691
   -11.7247 -10.6533  -9.9191  -9.8148  -9.1022  -8.8548  -8.8158  -8.7911
    -8.6272  -7.8987  -7.6424  -7.1208  -6.1669  -5.4137

          k = 0.4500 0.0000 0.0000 (101850 PWs)   bands (ev):

   -20.6326 -20.0294 -19.2859 -18.4764 -17.3882 -15.3264 -14.1718 -12.7381
   -11.5765 -10.5978  -9.8034  -9.7322  -9.1202  -8.9556  -8.9211  -8.7597
    -8.4846  -8.0012  -7.8203  -7.0049  -6.3130  -5.4021

          k = 0.4750 0.0000 0.0000 (101830 PWs)   bands (ev):

   -20.5203 -20.1613 -19.2235 -18.5561 -17.3706 -15.3613 -14.1415 -12.7821
   -11.4774 -10.5795  -9.7405  -9.5774  -9.2480  -9.0342  -8.9737  -8.6960
    -8.3383  -8.0769  -7.9879  -6.9019  -6.4341  -5.3950

          k =-0.5000 0.0000 0.0000 (101844 PWs)   bands (ev):

   -20.4565 -20.2318 -19.1990 -18.5863 -17.3645 -15.3731 -14.1309 -12.7973
   -11.4420 -10.5779  -9.6931  -9.5064  -9.3242  -9.0915  -8.9706  -8.6705
    -8.2309  -8.1062  -8.1025  -6.8527  -6.4893  -5.3925

     highest occupied level (ev):    -3.1428

!    total energy              =    -118.59574044 Ry
     estimated scf accuracy    <          5.6E-10 Ry

     The total energy is the sum of the following terms:
     one-electron contribution =    -793.20159175 Ry
     hartree contribution      =     402.29143491 Ry
     xc contribution           =     -37.82413801 Ry
     ewald contribution        =     310.13855442 Ry

     convergence has been achieved in  21 iterations

     Forces acting on atoms (cartesian axes, Ry/au):

     atom    1 type  1   force =    -0.00007769   -0.00015698    0.00000000
     atom    2 type  1   force =     0.00001877   -0.00028550    0.00000000
     atom    3 type  1   force =     0.00007769   -0.00015698    0.00000000
     atom    4 type  1   force =     0.00008862    0.00037918    0.00000000
     atom    5 type  1   force =     0.00002068    0.00006223    0.00000000
     atom    6 type  1   force =    -0.00001877   -0.00028550    0.00000000
     atom    7 type  1   force =    -0.00008862    0.00037918    0.00000000
     atom    8 type  1   force =    -0.00020746   -0.00034394    0.00000000
     atom    9 type  1   force =    -0.00002068    0.00006223    0.00000000
     atom   10 type  1   force =     0.00020746   -0.00034394    0.00000000
     atom   11 type  2   force =    -0.00026007    0.00003732    0.00000000
     atom   12 type  2   force =     0.00026007    0.00003732    0.00000000
     atom   13 type  2   force =    -0.00026535    0.00030769    0.00000000
     atom   14 type  2   force =     0.00026535    0.00030769    0.00000000

     Total force =     0.001152     Total SCF correction =     0.000049


     Computing stress (Cartesian axis) and pressure

          total   stress  (Ry/bohr**3)                   (kbar)     P=        0.00
  -0.00000111   0.00000000   0.00000000           -0.16        0.00        0.00
   0.00000000   0.00000113   0.00000000            0.00        0.17        0.00
   0.00000000   0.00000000   0.00000007            0.00        0.00        0.01


     Writing output data file ./5AGNR.save/
 
     init_run     :      8.96s CPU      9.61s WALL (       1 calls)
     electrons    :    398.34s CPU    422.81s WALL (       1 calls)
     forces       :      2.01s CPU      2.16s WALL (       1 calls)
     stress       :      8.15s CPU      8.31s WALL (       1 calls)

     Called by init_run:
     wfcinit      :      7.45s CPU      7.93s WALL (       1 calls)
     potinit      :      0.51s CPU      0.53s WALL (       1 calls)
     hinit0       :      0.37s CPU      0.45s WALL (       1 calls)

     Called by electrons:
     c_bands      :    252.35s CPU    267.18s WALL (      21 calls)
     sum_band     :     41.40s CPU     45.32s WALL (      21 calls)
     v_of_rho     :      1.86s CPU      2.05s WALL (      22 calls)
     newd         :      1.18s CPU      1.53s WALL (      22 calls)
     mix_rho      :    101.52s CPU    106.64s WALL (      21 calls)

     Called by c_bands:
     init_us_2    :      5.66s CPU      6.08s WALL (     945 calls)
     cegterg      :    236.61s CPU    249.70s WALL (     441 calls)

     Called by *egterg:
     cdiaghg      :     10.63s CPU     10.77s WALL (    1521 calls)
     h_psi        :    161.22s CPU    172.55s WALL (    1542 calls)
     s_psi        :      9.19s CPU      9.31s WALL (    1542 calls)
     g_psi        :      0.95s CPU      0.98s WALL (    1080 calls)

     Called by h_psi:
     h_psi:calbec :     12.79s CPU     13.81s WALL (    1542 calls)
     vloc_psi     :    136.39s CPU    146.14s WALL (    1542 calls)
     add_vuspsi   :     10.65s CPU     10.95s WALL (    1542 calls)

     General routines
     calbec       :     18.40s CPU     19.64s WALL (    2088 calls)
     fft          :      1.44s CPU      1.61s WALL (     250 calls)
     ffts         :     45.35s CPU     48.98s WALL (   10535 calls)
     fftw         :    148.13s CPU    159.33s WALL (   59764 calls)
 
     Parallel routines
     fft_scatt_xy :     20.63s CPU     20.99s WALL (   70549 calls)
     fft_scatt_yz :    107.97s CPU    121.32s WALL (   70549 calls)
 
     PWSCF        :   6m58.70s CPU   7m25.79s WALL

 
   This run was terminated on:  13:28:27   9Feb2022            

=------------------------------------------------------------------------------=
   JOB DONE.
=------------------------------------------------------------------------------=
