
     Program BANDS v.6.7MaX starts on  9Feb2022 at 14:12:34 

     This program is part of the open-source Quantum ESPRESSO suite
     for quantum simulation of materials; please cite
         "P. Giannozzi et al., J. Phys.:Condens. Matter 21 395502 (2009);
         "P. Giannozzi et al., J. Phys.:Condens. Matter 29 465901 (2017);
          URL http://www.quantum-espresso.org", 
     in publications or presentations arising from this work. More details at
     http://www.quantum-espresso.org/quote

     Parallel version (MPI), running on    20 processors

     MPI processes distributed on     1 nodes
     R & G space division:  proc/nbgrp/npool/nimage =      20

     Reading xml data from directory:

     ./5AGNR.save/
     Message from routine qexsd_readschema :
     input info not found or not readable in xml file
     file C.pbe-rrkjus.UPF: wavefunction(s)  2S 2P renormalized
     file H.pbe-rrkjus.UPF: wavefunction(s)  1S renormalized

     IMPORTANT: XC functional enforced from input :
     Exchange-correlation= PBE
                           (   1   4   3   4   0   0   0)
     Any further DFT definition will be discarded
     Please, verify this is what you really want

 
     Parallelization info
     --------------------
     sticks:   dense  smooth     PW     G-vecs:    dense   smooth      PW
     Min         268     268     96                26460    26460    5736
     Max         269     269     97                26463    26463    5743
     Sum        5363    5363   1925               529227   529227  114757
 

     negative rho (up, down):  5.115E-04 0.000E+00
     Reading collected, re-writing distributed wavefunctions
     high-symmetry point:  0.0000 0.0000 0.0000   x coordinate   0.0000
     high-symmetry point:  0.5000 0.0000 0.0000   x coordinate   0.5000

     Plottable bands (eV) written to file 5AGNR.bands.gnu
     Bands written to file 5AGNR.bands

 **************************************************************************

                    xk=(   0.00000,   0.00000,   0.00000  )

     point group C_2v (mm2) 
     there are  4 classes
     the character table:

       E     C2    s_v   s_v' 
A_1    1.00  1.00  1.00  1.00
A_2    1.00  1.00 -1.00 -1.00
B_1    1.00 -1.00  1.00 -1.00
B_2    1.00 -1.00 -1.00  1.00

     the symmetry operations in each class and the name of the first element:

     E        1
                                                                 
     C2       2
                                                                 
     s_v      3
                                                                 
     s_v'     4
                                                                 

     Band symmetry, C_2v (mm2)  point group:

     e(  1 -  1) =    -21.76606  eV     1   --> A_1  D_1  S_1  
     e(  2 -  2) =    -20.27662  eV     1   --> A_1  D_1  S_1  
     e(  3 -  3) =    -18.04319  eV     1   --> A_1  D_1  S_1  
     e(  4 -  4) =    -16.71489  eV     1   --> B_1  D_3  S_3  
     e(  5 -  5) =    -15.87370  eV     1   --> A_1  D_1  S_1  
     e(  6 -  6) =    -15.64878  eV     1   --> A_1  D_1  S_1  
     e(  7 -  7) =    -15.31796  eV     1   --> B_1  D_3  S_3  
     e(  8 -  8) =    -13.12080  eV     1   --> B_1  D_3  S_3  
     e(  9 -  9) =    -12.93443  eV     1   --> A_1  D_1  S_1  
     e( 10 - 10) =    -12.16197  eV     1   --> A_1  D_1  S_1  
     e( 11 - 11) =    -10.92315  eV     1   --> A_1  D_1  S_1  
     e( 12 - 12) =    -10.58914  eV     1   --> B_1  D_3  S_3  
     e( 13 - 13) =    -10.02332  eV     1   --> A_1  D_1  S_1  
     e( 14 - 14) =     -9.84262  eV     1   --> B_2  D_4  S_4  
     e( 15 - 15) =     -8.72275  eV     1   --> A_1  D_1  S_1  
     e( 16 - 16) =     -8.21225  eV     1   --> B_2  D_4  S_4  
     e( 17 - 17) =     -8.06168  eV     1   --> B_1  D_3  S_3  
     e( 18 - 18) =     -6.83657  eV     1   --> A_1  D_1  S_1  
     e( 19 - 19) =     -6.32378  eV     1   --> B_1  D_3  S_3  
     e( 20 - 20) =     -5.74694  eV     1   --> B_2  D_4  S_4  
     e( 21 - 21) =     -4.63104  eV     1   --> A_2  D_2  S_2  
     e( 22 - 22) =     -3.14269  eV     1   --> B_2  D_4  S_4  
     e( 23 - 23) =     -2.73775  eV     1   --> A_2  D_2  S_2  
     e( 24 - 24) =     -1.53734  eV     1   --> B_2  D_4  S_4  
     e( 25 - 25) =      0.11962  eV     1   --> A_1  D_1  S_1  
     e( 26 - 26) =      0.16451  eV     1   --> A_2  D_2  S_2  
     e( 27 - 27) =      0.45736  eV     1   --> A_1  D_1  S_1  
     e( 28 - 28) =      0.73183  eV     1   --> A_1  D_1  S_1  
     e( 29 - 29) =      1.04198  eV     1   --> B_2  D_4  S_4  
     e( 30 - 30) =      1.19208  eV     1   --> A_1  D_1  S_1  
     e( 31 - 31) =      1.47304  eV     1   --> B_2  D_4  S_4  
     e( 32 - 32) =      1.53916  eV     1   --> A_1  D_1  S_1  
     e( 33 - 33) =      1.74428  eV     1   --> B_2  D_4  S_4  
     e( 34 - 34) =      1.84020  eV     1   --> A_1  D_1  S_1  
     e( 35 - 35) =      2.17879  eV     1   --> A_1  D_1  S_1  
     e( 36 - 36) =      2.30591  eV     1   --> A_1  D_1  S_1  
     e( 37 - 37) =      2.82210  eV     1   --> B_2  D_4  S_4  
     e( 38 - 38) =      2.98480  eV     1   --> A_1  D_1  S_1  
     e( 39 - 39) =      3.23270  eV     1   --> A_1  D_1  S_1  
     e( 40 - 40) =      3.33177  eV     1   --> B_2  D_4  S_4  
     e( 41 - 41) =      3.39608  eV     1   --> B_2  D_4  S_4  
     e( 42 - 42) =      3.42461  eV     1   --> B_2  D_4  S_4  
     e( 43 - 43) =      3.50921  eV     1   --> A_1  D_1  S_1  
     e( 44 - 44) =      3.60516  eV     1   --> A_2  D_2  S_2  
     e( 45 - 45) =      3.79199  eV     1   --> A_1  D_1  S_1  
     e( 46 - 46) =      3.88489  eV     1   --> B_2  D_4  S_4  
     e( 47 - 47) =      4.30079  eV     1   --> A_1  D_1  S_1  
     e( 48 - 48) =      4.52710  eV     1   --> A_1  D_1  S_1  
     e( 49 - 49) =      4.61908  eV     1   --> A_1  D_1  S_1  
     e( 50 - 50) =      4.73631  eV     1   --> A_1  D_1  S_1  
     e( 51 - 51) =      5.01926  eV     1   --> B_2  D_4  S_4  
     e( 52 - 52) =      5.35964  eV     1   --> A_1  D_1  S_1  
     e( 53 - 53) =      5.43891  eV     1   --> B_2  D_4  S_4  
     e( 54 - 54) =      5.68126  eV     1   --> B_2  D_4  S_4  
     e( 55 - 55) =      5.77549  eV     1   --> A_1  D_1  S_1  
     e( 56 - 56) =      5.79393  eV     1   --> A_1  D_1  S_1  
     e( 57 - 57) =      6.06789  eV     1   --> B_1  D_3  S_3  
     e( 58 - 58) =      6.09211  eV     1   --> B_2  D_4  S_4  
     e( 59 - 59) =      6.18010  eV     1   --> A_1  D_1  S_1  
     e( 60 - 60) =      6.37762  eV     1   --> A_1  D_1  S_1  

 **************************************************************************

 **************************************************************************

                    xk=(   0.00500,   0.00000,   0.00000  )

     point group C_s (m)    
     there are  2 classes
     the character table:

       E     s    
A'     1.00  1.00
A''    1.00 -1.00

     the symmetry operations in each class and the name of the first element:

     E        1
                                                                 
     s        2
                                                                 

     Band symmetry, C_s (m)     point group:

     e(  1 -  1) =    -21.76591  eV     1   --> A'             
     e(  2 -  2) =    -20.27648  eV     1   --> A'             
     e(  3 -  3) =    -18.04312  eV     1   --> A'             
     e(  4 -  4) =    -16.71726  eV     1   --> A'             
     e(  5 -  5) =    -15.87515  eV     1   --> A'             
     e(  6 -  6) =    -15.64621  eV     1   --> A'             
     e(  7 -  7) =    -15.31703  eV     1   --> A'             
     e(  8 -  8) =    -13.12203  eV     1   --> A'             
     e(  9 -  9) =    -12.93366  eV     1   --> A'             
     e( 10 - 10) =    -12.16109  eV     1   --> A'             
     e( 11 - 11) =    -10.92259  eV     1   --> A'             
     e( 12 - 12) =    -10.59015  eV     1   --> A'             
     e( 13 - 13) =    -10.02272  eV     1   --> A'             
     e( 14 - 14) =     -9.84245  eV     1   --> A''            
     e( 15 - 15) =     -8.72242  eV     1   --> A'             
     e( 16 - 16) =     -8.21209  eV     1   --> A''            
     e( 17 - 17) =     -8.06217  eV     1   --> A'             
     e( 18 - 18) =     -6.83672  eV     1   --> A'             
     e( 19 - 19) =     -6.32411  eV     1   --> A'             
     e( 20 - 20) =     -5.74688  eV     1   --> A''            
     e( 21 - 21) =     -4.63212  eV     1   --> A''            
     e( 22 - 22) =     -3.14647  eV     1   --> A''            
     e( 23 - 23) =     -2.73405  eV     1   --> A''            
     e( 24 - 24) =     -1.53611  eV     1   --> A''            
     e( 25 - 25) =      0.11981  eV     1   --> A'             
     e( 26 - 26) =      0.16416  eV     1   --> A''            
     e( 27 - 27) =      0.45756  eV     1   --> A'             
     e( 28 - 28) =      0.73203  eV     1   --> A'             
     e( 29 - 29) =      1.04221  eV     1   --> A''            
     e( 30 - 30) =      1.19228  eV     1   --> A'             
     e( 31 - 31) =      1.47326  eV     1   --> A''            
     e( 32 - 32) =      1.53936  eV     1   --> A'             
     e( 33 - 33) =      1.74449  eV     1   --> A''            
     e( 34 - 34) =      1.84040  eV     1   --> A'             
     e( 35 - 35) =      2.17897  eV     1   --> A'             
     e( 36 - 36) =      2.30611  eV     1   --> A'             
     e( 37 - 37) =      2.82234  eV     1   --> A''            
     e( 38 - 38) =      2.98499  eV     1   --> A'             
     e( 39 - 39) =      3.23291  eV     1   --> A'             
     e( 40 - 40) =      3.33199  eV     1   --> A''            
     e( 41 - 41) =      3.39628  eV     1   --> A''            
     e( 42 - 42) =      3.42466  eV     1   --> A''            
     e( 43 - 43) =      3.50941  eV     1   --> A'             
     e( 44 - 44) =      3.60484  eV     1   --> A''            
     e( 45 - 45) =      3.79223  eV     1   --> A'             
     e( 46 - 46) =      3.88509  eV     1   --> A''            
     e( 47 - 47) =      4.30096  eV     1   --> A'             
     e( 48 - 48) =      4.52732  eV     1   --> A'             
     e( 49 - 49) =      4.61925  eV     1   --> A'             
     e( 50 - 50) =      4.73630  eV     1   --> A'             
     e( 51 - 51) =      5.01948  eV     1   --> A''            
     e( 52 - 52) =      5.35987  eV     1   --> A'             
     e( 53 - 53) =      5.43913  eV     1   --> A''            
     e( 54 - 54) =      5.68152  eV     1   --> A''            
     e( 55 - 55) =      5.77564  eV     1   --> A'             
     e( 56 - 56) =      5.79412  eV     1   --> A'             
     e( 57 - 57) =      6.06729  eV     1   --> A'             
     e( 58 - 58) =      6.09233  eV     1   --> A''            
     e( 59 - 59) =      6.18024  eV     1   --> A'             
     e( 60 - 60) =      6.37780  eV     1   --> A'             

 **************************************************************************

 **************************************************************************

                    xk=(   0.01000,   0.00000,   0.00000  )

     Band symmetry, C_s (m)     point group:

     e(  1 -  1) =    -21.76548  eV     1   --> A'             
     e(  2 -  2) =    -20.27608  eV     1   --> A'             
     e(  3 -  3) =    -18.04289  eV     1   --> A'             
     e(  4 -  4) =    -16.72430  eV     1   --> A'             
     e(  5 -  5) =    -15.87945  eV     1   --> A'             
     e(  6 -  6) =    -15.63857  eV     1   --> A'             
     e(  7 -  7) =    -15.31425  eV     1   --> A'             
     e(  8 -  8) =    -13.12571  eV     1   --> A'             
     e(  9 -  9) =    -12.93134  eV     1   --> A'             
     e( 10 - 10) =    -12.15847  eV     1   --> A'             
     e( 11 - 11) =    -10.92092  eV     1   --> A'             
     e( 12 - 12) =    -10.59316  eV     1   --> A'             
     e( 13 - 13) =    -10.02094  eV     1   --> A'             
     e( 14 - 14) =     -9.84194  eV     1   --> A''            
     e( 15 - 15) =     -8.72142  eV     1   --> A'             
     e( 16 - 16) =     -8.21162  eV     1   --> A''            
     e( 17 - 17) =     -8.06365  eV     1   --> A'             
     e( 18 - 18) =     -6.83720  eV     1   --> A'             
     e( 19 - 19) =     -6.32510  eV     1   --> A'             
     e( 20 - 20) =     -5.74668  eV     1   --> A''            
     e( 21 - 21) =     -4.63536  eV     1   --> A''            
     e( 22 - 22) =     -3.15743  eV     1   --> A''            
     e( 23 - 23) =     -2.72332  eV     1   --> A''            
     e( 24 - 24) =     -1.53241  eV     1   --> A''            
     e( 25 - 25) =      0.12038  eV     1   --> A'             
     e( 26 - 26) =      0.16312  eV     1   --> A''            
     e( 27 - 27) =      0.45816  eV     1   --> A'             
     e( 28 - 28) =      0.73262  eV     1   --> A'             
     e( 29 - 29) =      1.04290  eV     1   --> A''            
     e( 30 - 30) =      1.19288  eV     1   --> A'             
     e( 31 - 31) =      1.47391  eV     1   --> A''            
     e( 32 - 32) =      1.53997  eV     1   --> A'             
     e( 33 - 33) =      1.74509  eV     1   --> A''            
     e( 34 - 34) =      1.84099  eV     1   --> A'             
     e( 35 - 35) =      2.17954  eV     1   --> A'             
     e( 36 - 36) =      2.30670  eV     1   --> A'             
     e( 37 - 37) =      2.82305  eV     1   --> A''            
     e( 38 - 38) =      2.98559  eV     1   --> A'             
     e( 39 - 39) =      3.23355  eV     1   --> A'             
     e( 40 - 40) =      3.33264  eV     1   --> A''            
     e( 41 - 41) =      3.39689  eV     1   --> A''            
     e( 42 - 42) =      3.42483  eV     1   --> A''            
     e( 43 - 43) =      3.51001  eV     1   --> A'             
     e( 44 - 44) =      3.60386  eV     1   --> A''            
     e( 45 - 45) =      3.79296  eV     1   --> A'             
     e( 46 - 46) =      3.88569  eV     1   --> A''            
     e( 47 - 47) =      4.30147  eV     1   --> A'             
     e( 48 - 48) =      4.52798  eV     1   --> A'             
     e( 49 - 49) =      4.61975  eV     1   --> A'             
     e( 50 - 50) =      4.73630  eV     1   --> A'             
     e( 51 - 51) =      5.02015  eV     1   --> A''            
     e( 52 - 52) =      5.36056  eV     1   --> A'             
     e( 53 - 53) =      5.43978  eV     1   --> A''            
     e( 54 - 54) =      5.68229  eV     1   --> A''            
     e( 55 - 55) =      5.77608  eV     1   --> A'             
     e( 56 - 56) =      5.79470  eV     1   --> A'             
     e( 57 - 57) =      6.06547  eV     1   --> A'             
     e( 58 - 58) =      6.09299  eV     1   --> A''            
     e( 59 - 59) =      6.18066  eV     1   --> A'             
     e( 60 - 60) =      6.37832  eV     1   --> A'             

 **************************************************************************

 **************************************************************************

                    xk=(   0.01500,   0.00000,   0.00000  )

     Band symmetry, C_s (m)     point group:

     e(  1 -  1) =    -21.76477  eV     1   --> A'             
     e(  2 -  2) =    -20.27540  eV     1   --> A'             
     e(  3 -  3) =    -18.04251  eV     1   --> A'             
     e(  4 -  4) =    -16.73582  eV     1   --> A'             
     e(  5 -  5) =    -15.88652  eV     1   --> A'             
     e(  6 -  6) =    -15.62604  eV     1   --> A'             
     e(  7 -  7) =    -15.30973  eV     1   --> A'             
     e(  8 -  8) =    -13.13180  eV     1   --> A'             
     e(  9 -  9) =    -12.92748  eV     1   --> A'             
     e( 10 - 10) =    -12.15415  eV     1   --> A'             
     e( 11 - 11) =    -10.91813  eV     1   --> A'             
     e( 12 - 12) =    -10.59813  eV     1   --> A'             
     e( 13 - 13) =    -10.01800  eV     1   --> A'             
     e( 14 - 14) =     -9.84108  eV     1   --> A''            
     e( 15 - 15) =     -8.71976  eV     1   --> A'             
     e( 16 - 16) =     -8.21083  eV     1   --> A''            
     e( 17 - 17) =     -8.06612  eV     1   --> A'             
     e( 18 - 18) =     -6.83799  eV     1   --> A'             
     e( 19 - 19) =     -6.32675  eV     1   --> A'             
     e( 20 - 20) =     -5.74634  eV     1   --> A''            
     e( 21 - 21) =     -4.64074  eV     1   --> A''            
     e( 22 - 22) =     -3.17457  eV     1   --> A''            
     e( 23 - 23) =     -2.70657  eV     1   --> A''            
     e( 24 - 24) =     -1.52627  eV     1   --> A''            
     e( 25 - 25) =      0.12134  eV     1   --> A'             
     e( 26 - 26) =      0.16138  eV     1   --> A''            
     e( 27 - 27) =      0.45916  eV     1   --> A'             
     e( 28 - 28) =      0.73360  eV     1   --> A'             
     e( 29 - 29) =      1.04406  eV     1   --> A''            
     e( 30 - 30) =      1.19387  eV     1   --> A'             
     e( 31 - 31) =      1.47501  eV     1   --> A''            
     e( 32 - 32) =      1.54098  eV     1   --> A'             
     e( 33 - 33) =      1.74609  eV     1   --> A''            
     e( 34 - 34) =      1.84198  eV     1   --> A'             
     e( 35 - 35) =      2.18047  eV     1   --> A'             
     e( 36 - 36) =      2.30769  eV     1   --> A'             
     e( 37 - 37) =      2.82425  eV     1   --> A''            
     e( 38 - 38) =      2.98658  eV     1   --> A'             
     e( 39 - 39) =      3.23461  eV     1   --> A'             
     e( 40 - 40) =      3.33372  eV     1   --> A''            
     e( 41 - 41) =      3.39790  eV     1   --> A''            
     e( 42 - 42) =      3.42509  eV     1   --> A''            
     e( 43 - 43) =      3.51100  eV     1   --> A'             
     e( 44 - 44) =      3.60226  eV     1   --> A''            
     e( 45 - 45) =      3.79418  eV     1   --> A'             
     e( 46 - 46) =      3.88670  eV     1   --> A''            
     e( 47 - 47) =      4.30232  eV     1   --> A'             
     e( 48 - 48) =      4.52909  eV     1   --> A'             
     e( 49 - 49) =      4.62058  eV     1   --> A'             
     e( 50 - 50) =      4.73630  eV     1   --> A'             
     e( 51 - 51) =      5.02126  eV     1   --> A''            
     e( 52 - 52) =      5.36170  eV     1   --> A'             
     e( 53 - 53) =      5.44086  eV     1   --> A''            
     e( 54 - 54) =      5.68357  eV     1   --> A''            
     e( 55 - 55) =      5.77682  eV     1   --> A'             
     e( 56 - 56) =      5.79567  eV     1   --> A'             
     e( 57 - 57) =      6.06245  eV     1   --> A'             
     e( 58 - 58) =      6.09410  eV     1   --> A''            
     e( 59 - 59) =      6.18135  eV     1   --> A'             
     e( 60 - 60) =      6.37920  eV     1   --> A'             

 **************************************************************************

 **************************************************************************

                    xk=(   0.02000,   0.00000,   0.00000  )

     Band symmetry, C_s (m)     point group:

     e(  1 -  1) =    -21.76377  eV     1   --> A'             
     e(  2 -  2) =    -20.27445  eV     1   --> A'             
     e(  3 -  3) =    -18.04199  eV     1   --> A'             
     e(  4 -  4) =    -16.75150  eV     1   --> A'             
     e(  5 -  5) =    -15.89622  eV     1   --> A'             
     e(  6 -  6) =    -15.60894  eV     1   --> A'             
     e(  7 -  7) =    -15.30358  eV     1   --> A'             
     e(  8 -  8) =    -13.14021  eV     1   --> A'             
     e(  9 -  9) =    -12.92209  eV     1   --> A'             
     e( 10 - 10) =    -12.14821  eV     1   --> A'             
     e( 11 - 11) =    -10.91423  eV     1   --> A'             
     e( 12 - 12) =    -10.60500  eV     1   --> A'             
     e( 13 - 13) =    -10.01398  eV     1   --> A'             
     e( 14 - 14) =     -9.83989  eV     1   --> A''            
     e( 15 - 15) =     -8.71745  eV     1   --> A'             
     e( 16 - 16) =     -8.20973  eV     1   --> A''            
     e( 17 - 17) =     -8.06957  eV     1   --> A'             
     e( 18 - 18) =     -6.83912  eV     1   --> A'             
     e( 19 - 19) =     -6.32905  eV     1   --> A'             
     e( 20 - 20) =     -5.74587  eV     1   --> A''            
     e( 21 - 21) =     -4.64824  eV     1   --> A''            
     e( 22 - 22) =     -3.19668  eV     1   --> A''            
     e( 23 - 23) =     -2.68499  eV     1   --> A''            
     e( 24 - 24) =     -1.51771  eV     1   --> A''            
     e( 25 - 25) =      0.12267  eV     1   --> A'             
     e( 26 - 26) =      0.15896  eV     1   --> A''            
     e( 27 - 27) =      0.46056  eV     1   --> A'             
     e( 28 - 28) =      0.73497  eV     1   --> A'             
     e( 29 - 29) =      1.04567  eV     1   --> A''            
     e( 30 - 30) =      1.19527  eV     1   --> A'             
     e( 31 - 31) =      1.47653  eV     1   --> A''            
     e( 32 - 32) =      1.54239  eV     1   --> A'             
     e( 33 - 33) =      1.74750  eV     1   --> A''            
     e( 34 - 34) =      1.84336  eV     1   --> A'             
     e( 35 - 35) =      2.18178  eV     1   --> A'             
     e( 36 - 36) =      2.30908  eV     1   --> A'             
     e( 37 - 37) =      2.82593  eV     1   --> A''            
     e( 38 - 38) =      2.98796  eV     1   --> A'             
     e( 39 - 39) =      3.23610  eV     1   --> A'             
     e( 40 - 40) =      3.33523  eV     1   --> A''            
     e( 41 - 41) =      3.39932  eV     1   --> A''            
     e( 42 - 42) =      3.42540  eV     1   --> A''            
     e( 43 - 43) =      3.51240  eV     1   --> A'             
     e( 44 - 44) =      3.60007  eV     1   --> A''            
     e( 45 - 45) =      3.79588  eV     1   --> A'             
     e( 46 - 46) =      3.88810  eV     1   --> A''            
     e( 47 - 47) =      4.30351  eV     1   --> A'             
     e( 48 - 48) =      4.53063  eV     1   --> A'             
     e( 49 - 49) =      4.62173  eV     1   --> A'             
     e( 50 - 50) =      4.73631  eV     1   --> A'             
     e( 51 - 51) =      5.02281  eV     1   --> A''            
     e( 52 - 52) =      5.36330  eV     1   --> A'             
     e( 53 - 53) =      5.44236  eV     1   --> A''            
     e( 54 - 54) =      5.68537  eV     1   --> A''            
     e( 55 - 55) =      5.77785  eV     1   --> A'             
     e( 56 - 56) =      5.79702  eV     1   --> A'             
     e( 57 - 57) =      6.05819  eV     1   --> A'             
     e( 58 - 58) =      6.09564  eV     1   --> A''            
     e( 59 - 59) =      6.18231  eV     1   --> A'             
     e( 60 - 60) =      6.38043  eV     1   --> A'             

 **************************************************************************

 **************************************************************************

                    xk=(   0.02500,   0.00000,   0.00000  )

     Band symmetry, C_s (m)     point group:

     e(  1 -  1) =    -21.76248  eV     1   --> A'             
     e(  2 -  2) =    -20.27324  eV     1   --> A'             
     e(  3 -  3) =    -18.04132  eV     1   --> A'             
     e(  4 -  4) =    -16.77099  eV     1   --> A'             
     e(  5 -  5) =    -15.90838  eV     1   --> A'             
     e(  6 -  6) =    -15.58762  eV     1   --> A'             
     e(  7 -  7) =    -15.29597  eV     1   --> A'             
     e(  8 -  8) =    -13.15085  eV     1   --> A'             
     e(  9 -  9) =    -12.91519  eV     1   --> A'             
     e( 10 - 10) =    -12.14075  eV     1   --> A'             
     e( 11 - 11) =    -10.90923  eV     1   --> A'             
     e( 12 - 12) =    -10.61367  eV     1   --> A'             
     e( 13 - 13) =    -10.00894  eV     1   --> A'             
     e( 14 - 14) =     -9.83835  eV     1   --> A''            
     e( 15 - 15) =     -8.71449  eV     1   --> A'             
     e( 16 - 16) =     -8.20831  eV     1   --> A''            
     e( 17 - 17) =     -8.07399  eV     1   --> A'             
     e( 18 - 18) =     -6.84057  eV     1   --> A'             
     e( 19 - 19) =     -6.33200  eV     1   --> A'             
     e( 20 - 20) =     -5.74527  eV     1   --> A''            
     e( 21 - 21) =     -4.65781  eV     1   --> A''            
     e( 22 - 22) =     -3.22262  eV     1   --> A''            
     e( 23 - 23) =     -2.65974  eV     1   --> A''            
     e( 24 - 24) =     -1.50676  eV     1   --> A''            
     e( 25 - 25) =      0.12438  eV     1   --> A'             
     e( 26 - 26) =      0.15585  eV     1   --> A''            
     e( 27 - 27) =      0.46235  eV     1   --> A'             
     e( 28 - 28) =      0.73674  eV     1   --> A'             
     e( 29 - 29) =      1.04775  eV     1   --> A''            
     e( 30 - 30) =      1.19706  eV     1   --> A'             
     e( 31 - 31) =      1.47850  eV     1   --> A''            
     e( 32 - 32) =      1.54421  eV     1   --> A'             
     e( 33 - 33) =      1.74931  eV     1   --> A''            
     e( 34 - 34) =      1.84514  eV     1   --> A'             
     e( 35 - 35) =      2.18347  eV     1   --> A'             
     e( 36 - 36) =      2.31086  eV     1   --> A'             
     e( 37 - 37) =      2.82808  eV     1   --> A''            
     e( 38 - 38) =      2.98975  eV     1   --> A'             
     e( 39 - 39) =      3.23801  eV     1   --> A'             
     e( 40 - 40) =      3.33717  eV     1   --> A''            
     e( 41 - 41) =      3.40114  eV     1   --> A''            
     e( 42 - 42) =      3.42574  eV     1   --> A''            
     e( 43 - 43) =      3.51420  eV     1   --> A'             
     e( 44 - 44) =      3.59732  eV     1   --> A''            
     e( 45 - 45) =      3.79806  eV     1   --> A'             
     e( 46 - 46) =      3.88991  eV     1   --> A''            
     e( 47 - 47) =      4.30504  eV     1   --> A'             
     e( 48 - 48) =      4.53261  eV     1   --> A'             
     e( 49 - 49) =      4.62321  eV     1   --> A'             
     e( 50 - 50) =      4.73634  eV     1   --> A'             
     e( 51 - 51) =      5.02481  eV     1   --> A''            
     e( 52 - 52) =      5.36533  eV     1   --> A'             
     e( 53 - 53) =      5.44430  eV     1   --> A''            
     e( 54 - 54) =      5.68768  eV     1   --> A''            
     e( 55 - 55) =      5.77917  eV     1   --> A'             
     e( 56 - 56) =      5.79876  eV     1   --> A'             
     e( 57 - 57) =      6.05269  eV     1   --> A'             
     e( 58 - 58) =      6.09762  eV     1   --> A''            
     e( 59 - 59) =      6.18351  eV     1   --> A'             
     e( 60 - 60) =      6.38200  eV     1   --> A'             

 **************************************************************************

 **************************************************************************

                    xk=(   0.03000,   0.00000,   0.00000  )

     Band symmetry, C_s (m)     point group:

     e(  1 -  1) =    -21.76091  eV     1   --> A'             
     e(  2 -  2) =    -20.27175  eV     1   --> A'             
     e(  3 -  3) =    -18.04051  eV     1   --> A'             
     e(  4 -  4) =    -16.79387  eV     1   --> A'             
     e(  5 -  5) =    -15.92279  eV     1   --> A'             
     e(  6 -  6) =    -15.56251  eV     1   --> A'             
     e(  7 -  7) =    -15.28708  eV     1   --> A'             
     e(  8 -  8) =    -13.16359  eV     1   --> A'             
     e(  9 -  9) =    -12.90678  eV     1   --> A'             
     e( 10 - 10) =    -12.13187  eV     1   --> A'             
     e( 11 - 11) =    -10.90312  eV     1   --> A'             
     e( 12 - 12) =    -10.62406  eV     1   --> A'             
     e( 13 - 13) =    -10.00297  eV     1   --> A'             
     e( 14 - 14) =     -9.83646  eV     1   --> A''            
     e( 15 - 15) =     -8.71091  eV     1   --> A'             
     e( 16 - 16) =     -8.20658  eV     1   --> A''            
     e( 17 - 17) =     -8.07937  eV     1   --> A'             
     e( 18 - 18) =     -6.84236  eV     1   --> A'             
     e( 19 - 19) =     -6.33561  eV     1   --> A'             
     e( 20 - 20) =     -5.74454  eV     1   --> A''            
     e( 21 - 21) =     -4.66941  eV     1   --> A''            
     e( 22 - 22) =     -3.25145  eV     1   --> A''            
     e( 23 - 23) =     -2.63175  eV     1   --> A''            
     e( 24 - 24) =     -1.49348  eV     1   --> A''            
     e( 25 - 25) =      0.12648  eV     1   --> A'             
     e( 26 - 26) =      0.15207  eV     1   --> A''            
     e( 27 - 27) =      0.46454  eV     1   --> A'             
     e( 28 - 28) =      0.73889  eV     1   --> A'             
     e( 29 - 29) =      1.05028  eV     1   --> A''            
     e( 30 - 30) =      1.19926  eV     1   --> A'             
     e( 31 - 31) =      1.48090  eV     1   --> A''            
     e( 32 - 32) =      1.54643  eV     1   --> A'             
     e( 33 - 33) =      1.75152  eV     1   --> A''            
     e( 34 - 34) =      1.84731  eV     1   --> A'             
     e( 35 - 35) =      2.18554  eV     1   --> A'             
     e( 36 - 36) =      2.31304  eV     1   --> A'             
     e( 37 - 37) =      2.83071  eV     1   --> A''            
     e( 38 - 38) =      2.99192  eV     1   --> A'             
     e( 39 - 39) =      3.24034  eV     1   --> A'             
     e( 40 - 40) =      3.33954  eV     1   --> A''            
     e( 41 - 41) =      3.40337  eV     1   --> A''            
     e( 42 - 42) =      3.42604  eV     1   --> A''            
     e( 43 - 43) =      3.51639  eV     1   --> A'             
     e( 44 - 44) =      3.59409  eV     1   --> A''            
     e( 45 - 45) =      3.80072  eV     1   --> A'             
     e( 46 - 46) =      3.89211  eV     1   --> A''            
     e( 47 - 47) =      4.30691  eV     1   --> A'             
     e( 48 - 48) =      4.53502  eV     1   --> A'             
     e( 49 - 49) =      4.62502  eV     1   --> A'             
     e( 50 - 50) =      4.73640  eV     1   --> A'             
     e( 51 - 51) =      5.02725  eV     1   --> A''            
     e( 52 - 52) =      5.36780  eV     1   --> A'             
     e( 53 - 53) =      5.44667  eV     1   --> A''            
     e( 54 - 54) =      5.69050  eV     1   --> A''            
     e( 55 - 55) =      5.78077  eV     1   --> A'             
     e( 56 - 56) =      5.80088  eV     1   --> A'             
     e( 57 - 57) =      6.04593  eV     1   --> A'             
     e( 58 - 58) =      6.10005  eV     1   --> A''            
     e( 59 - 59) =      6.18492  eV     1   --> A'             
     e( 60 - 60) =      6.38392  eV     1   --> A'             

 **************************************************************************

 **************************************************************************

                    xk=(   0.03500,   0.00000,   0.00000  )

     Band symmetry, C_s (m)     point group:

     e(  1 -  1) =    -21.75905  eV     1   --> A'             
     e(  2 -  2) =    -20.26999  eV     1   --> A'             
     e(  3 -  3) =    -18.03956  eV     1   --> A'             
     e(  4 -  4) =    -16.81973  eV     1   --> A'             
     e(  5 -  5) =    -15.93927  eV     1   --> A'             
     e(  6 -  6) =    -15.53400  eV     1   --> A'             
     e(  7 -  7) =    -15.27709  eV     1   --> A'             
     e(  8 -  8) =    -13.17831  eV     1   --> A'             
     e(  9 -  9) =    -12.89689  eV     1   --> A'             
     e( 10 - 10) =    -12.12170  eV     1   --> A'             
     e( 11 - 11) =    -10.89593  eV     1   --> A'             
     e( 12 - 12) =    -10.63606  eV     1   --> A'             
     e( 13 - 13) =     -9.99616  eV     1   --> A'             
     e( 14 - 14) =     -9.83424  eV     1   --> A''            
     e( 15 - 15) =     -8.70672  eV     1   --> A'             
     e( 16 - 16) =     -8.20453  eV     1   --> A''            
     e( 17 - 17) =     -8.08570  eV     1   --> A'             
     e( 18 - 18) =     -6.84450  eV     1   --> A'             
     e( 19 - 19) =     -6.33987  eV     1   --> A'             
     e( 20 - 20) =     -5.74368  eV     1   --> A''            
     e( 21 - 21) =     -4.68299  eV     1   --> A''            
     e( 22 - 22) =     -3.28247  eV     1   --> A''            
     e( 23 - 23) =     -2.60172  eV     1   --> A''            
     e( 24 - 24) =     -1.47792  eV     1   --> A''            
     e( 25 - 25) =      0.12896  eV     1   --> A'             
     e( 26 - 26) =      0.14762  eV     1   --> A''            
     e( 27 - 27) =      0.46713  eV     1   --> A'             
     e( 28 - 28) =      0.74144  eV     1   --> A'             
     e( 29 - 29) =      1.05327  eV     1   --> A''            
     e( 30 - 30) =      1.20185  eV     1   --> A'             
     e( 31 - 31) =      1.48373  eV     1   --> A''            
     e( 32 - 32) =      1.54905  eV     1   --> A'             
     e( 33 - 33) =      1.75413  eV     1   --> A''            
     e( 34 - 34) =      1.84988  eV     1   --> A'             
     e( 35 - 35) =      2.18798  eV     1   --> A'             
     e( 36 - 36) =      2.31562  eV     1   --> A'             
     e( 37 - 37) =      2.83381  eV     1   --> A''            
     e( 38 - 38) =      2.99450  eV     1   --> A'             
     e( 39 - 39) =      3.24309  eV     1   --> A'             
     e( 40 - 40) =      3.34235  eV     1   --> A''            
     e( 41 - 41) =      3.40600  eV     1   --> A''            
     e( 42 - 42) =      3.42621  eV     1   --> A''            
     e( 43 - 43) =      3.51899  eV     1   --> A'             
     e( 44 - 44) =      3.59047  eV     1   --> A''            
     e( 45 - 45) =      3.80385  eV     1   --> A'             
     e( 46 - 46) =      3.89472  eV     1   --> A''            
     e( 47 - 47) =      4.30912  eV     1   --> A'             
     e( 48 - 48) =      4.53785  eV     1   --> A'             
     e( 49 - 49) =      4.62714  eV     1   --> A'             
     e( 50 - 50) =      4.73651  eV     1   --> A'             
     e( 51 - 51) =      5.03013  eV     1   --> A''            
     e( 52 - 52) =      5.37068  eV     1   --> A'             
     e( 53 - 53) =      5.44946  eV     1   --> A''            
     e( 54 - 54) =      5.69383  eV     1   --> A''            
     e( 55 - 55) =      5.78264  eV     1   --> A'             
     e( 56 - 56) =      5.80338  eV     1   --> A'             
     e( 57 - 57) =      6.03788  eV     1   --> A'             
     e( 58 - 58) =      6.10291  eV     1   --> A''            
     e( 59 - 59) =      6.18651  eV     1   --> A'             
     e( 60 - 60) =      6.38628  eV     1   -->   ?

 **************************************************************************

 **************************************************************************

                    xk=(   0.04000,   0.00000,   0.00000  )

     Band symmetry, C_s (m)     point group:

     e(  1 -  1) =    -21.75690  eV     1   --> A'             
     e(  2 -  2) =    -20.26796  eV     1   --> A'             
     e(  3 -  3) =    -18.03848  eV     1   --> A'             
     e(  4 -  4) =    -16.84816  eV     1   --> A'             
     e(  5 -  5) =    -15.95761  eV     1   --> A'             
     e(  6 -  6) =    -15.50250  eV     1   --> A'             
     e(  7 -  7) =    -15.26619  eV     1   --> A'             
     e(  8 -  8) =    -13.19486  eV     1   --> A'             
     e(  9 -  9) =    -12.88553  eV     1   --> A'             
     e( 10 - 10) =    -12.11038  eV     1   --> A'             
     e( 11 - 11) =    -10.88765  eV     1   --> A'             
     e( 12 - 12) =    -10.64954  eV     1   --> A'             
     e( 13 - 13) =     -9.98861  eV     1   --> A'             
     e( 14 - 14) =     -9.83167  eV     1   --> A''            
     e( 15 - 15) =     -8.70194  eV     1   --> A'             
     e( 16 - 16) =     -8.20217  eV     1   --> A''            
     e( 17 - 17) =     -8.09297  eV     1   --> A'             
     e( 18 - 18) =     -6.84701  eV     1   --> A'             
     e( 19 - 19) =     -6.34477  eV     1   --> A'             
     e( 20 - 20) =     -5.74269  eV     1   --> A''            
     e( 21 - 21) =     -4.69848  eV     1   --> A''            
     e( 22 - 22) =     -3.31514  eV     1   --> A''            
     e( 23 - 23) =     -2.57019  eV     1   --> A''            
     e( 24 - 24) =     -1.46014  eV     1   --> A''            
     e( 25 - 25) =      0.13182  eV     1   --> A'             
     e( 26 - 26) =      0.14250  eV     1   --> A''            
     e( 27 - 27) =      0.47012  eV     1   --> A'             
     e( 28 - 28) =      0.74439  eV     1   --> A'             
     e( 29 - 29) =      1.05671  eV     1   --> A''            
     e( 30 - 30) =      1.20484  eV     1   --> A'             
     e( 31 - 31) =      1.48700  eV     1   --> A''            
     e( 32 - 32) =      1.55208  eV     1   --> A'             
     e( 33 - 33) =      1.75715  eV     1   --> A''            
     e( 34 - 34) =      1.85284  eV     1   --> A'             
     e( 35 - 35) =      2.19079  eV     1   --> A'             
     e( 36 - 36) =      2.31859  eV     1   --> A'             
     e( 37 - 37) =      2.83739  eV     1   --> A''            
     e( 38 - 38) =      2.99747  eV     1   --> A'             
     e( 39 - 39) =      3.24627  eV     1   --> A'             
     e( 40 - 40) =      3.34558  eV     1   --> A''            
     e( 41 - 41) =      3.40904  eV     1   --> A''            
     e( 42 - 42) =      3.42617  eV     1   --> A''            
     e( 43 - 43) =      3.52198  eV     1   --> A'             
     e( 44 - 44) =      3.58655  eV     1   --> A''            
     e( 45 - 45) =      3.80746  eV     1   --> A'             
     e( 46 - 46) =      3.89773  eV     1   --> A''            
     e( 47 - 47) =      4.31167  eV     1   --> A'             
     e( 48 - 48) =      4.54110  eV     1   --> A'             
     e( 49 - 49) =      4.62956  eV     1   --> A'             
     e( 50 - 50) =      4.73670  eV     1   --> A'             
     e( 51 - 51) =      5.03345  eV     1   --> A''            
     e( 52 - 52) =      5.37395  eV     1   --> A'             
     e( 53 - 53) =      5.45269  eV     1   --> A''            
     e( 54 - 54) =      5.69767  eV     1   --> A''            
     e( 55 - 55) =      5.78476  eV     1   --> A'             
     e( 56 - 56) =      5.80627  eV     1   --> A'             
     e( 57 - 57) =      6.02853  eV     1   --> A'             
     e( 58 - 58) =      6.10621  eV     1   --> A''            
     e( 59 - 59) =      6.18822  eV     1   --> A'             
     e( 60 - 60) =      6.37665  eV     1   --> A'             

 **************************************************************************

 **************************************************************************

                    xk=(   0.04500,   0.00000,   0.00000  )

     Band symmetry, C_s (m)     point group:

     e(  1 -  1) =    -21.75447  eV     1   --> A'             
     e(  2 -  2) =    -20.26566  eV     1   --> A'             
     e(  3 -  3) =    -18.03727  eV     1   --> A'             
     e(  4 -  4) =    -16.87880  eV     1   --> A'             
     e(  5 -  5) =    -15.97763  eV     1   --> A'             
     e(  6 -  6) =    -15.46838  eV     1   --> A'             
     e(  7 -  7) =    -15.25452  eV     1   --> A'             
     e(  8 -  8) =    -13.21310  eV     1   --> A'             
     e(  9 -  9) =    -12.87274  eV     1   --> A'             
     e( 10 - 10) =    -12.09804  eV     1   --> A'             
     e( 11 - 11) =    -10.87830  eV     1   --> A'             
     e( 12 - 12) =    -10.66441  eV     1   --> A'             
     e( 13 - 13) =     -9.98040  eV     1   --> A'             
     e( 14 - 14) =     -9.82876  eV     1   --> A''            
     e( 15 - 15) =     -8.69659  eV     1   --> A'             
     e( 16 - 16) =     -8.19949  eV     1   --> A''            
     e( 17 - 17) =     -8.10117  eV     1   --> A'             
     e( 18 - 18) =     -6.84989  eV     1   --> A'             
     e( 19 - 19) =     -6.35031  eV     1   --> A'             
     e( 20 - 20) =     -5.74157  eV     1   --> A''            
     e( 21 - 21) =     -4.71582  eV     1   --> A''            
     e( 22 - 22) =     -3.34909  eV     1   --> A''            
     e( 23 - 23) =     -2.53752  eV     1   --> A''            
     e( 24 - 24) =     -1.44021  eV     1   --> A''            
     e( 25 - 25) =      0.13506  eV     1   --> A'             
     e( 26 - 26) =      0.13674  eV     1   --> A''            
     e( 27 - 27) =      0.47351  eV     1   --> A'             
     e( 28 - 28) =      0.74772  eV     1   --> A'             
     e( 29 - 29) =      1.06060  eV     1   --> A''            
     e( 30 - 30) =      1.20823  eV     1   --> A'             
     e( 31 - 31) =      1.49071  eV     1   --> A''            
     e( 32 - 32) =      1.55551  eV     1   --> A'             
     e( 33 - 33) =      1.76056  eV     1   --> A''            
     e( 34 - 34) =      1.85620  eV     1   --> A'             
     e( 35 - 35) =      2.19399  eV     1   --> A'             
     e( 36 - 36) =      2.32196  eV     1   --> A'             
     e( 37 - 37) =      2.84144  eV     1   --> A''            
     e( 38 - 38) =      3.00084  eV     1   --> A'             
     e( 39 - 39) =      3.24986  eV     1   --> A'             
     e( 40 - 40) =      3.34924  eV     1   --> A''            
     e( 41 - 41) =      3.41248  eV     1   --> A''            
     e( 42 - 42) =      3.42577  eV     1   --> A''            
     e( 43 - 43) =      3.52538  eV     1   --> A'             
     e( 44 - 44) =      3.58249  eV     1   --> A''            
     e( 45 - 45) =      3.81152  eV     1   --> A'             
     e( 46 - 46) =      3.90114  eV     1   --> A''            
     e( 47 - 47) =      4.31455  eV     1   --> A'             
     e( 48 - 48) =      4.54475  eV     1   --> A'             
     e( 49 - 49) =      4.63229  eV     1   --> A'             
     e( 50 - 50) =      4.73697  eV     1   --> A'             
     e( 51 - 51) =      5.03722  eV     1   --> A''            
     e( 52 - 52) =      5.37761  eV     1   --> A'             
     e( 53 - 53) =      5.45633  eV     1   --> A''            
     e( 54 - 54) =      5.70201  eV     1   --> A''            
     e( 55 - 55) =      5.78713  eV     1   --> A'             
     e( 56 - 56) =      5.80953  eV     1   --> A'             
     e( 57 - 57) =      6.01788  eV     1   --> A'             
     e( 58 - 58) =      6.10995  eV     1   --> A''            
     e( 59 - 59) =      6.18994  eV     1   --> A'             
     e( 60 - 60) =      6.35978  eV     1   --> A'             

 **************************************************************************

 **************************************************************************

                    xk=(   0.05000,   0.00000,   0.00000  )

     Band symmetry, C_s (m)     point group:

     e(  1 -  1) =    -21.75175  eV     1   --> A'             
     e(  2 -  2) =    -20.26309  eV     1   --> A'             
     e(  3 -  3) =    -18.03595  eV     1   --> A'             
     e(  4 -  4) =    -16.91130  eV     1   --> A'             
     e(  5 -  5) =    -15.99915  eV     1   --> A'             
     e(  6 -  6) =    -15.43195  eV     1   --> A'             
     e(  7 -  7) =    -15.24225  eV     1   --> A'             
     e(  8 -  8) =    -13.23290  eV     1   --> A'             
     e(  9 -  9) =    -12.85853  eV     1   --> A'             
     e( 10 - 10) =    -12.08479  eV     1   --> A'             
     e( 11 - 11) =    -10.86789  eV     1   --> A'             
     e( 12 - 12) =    -10.68054  eV     1   --> A'             
     e( 13 - 13) =     -9.97162  eV     1   --> A'             
     e( 14 - 14) =     -9.82551  eV     1   --> A''            
     e( 15 - 15) =     -8.69070  eV     1   --> A'             
     e( 16 - 16) =     -8.19649  eV     1   --> A''            
     e( 17 - 17) =     -8.11026  eV     1   --> A'             
     e( 18 - 18) =     -6.85316  eV     1   --> A'             
     e( 19 - 19) =     -6.35649  eV     1   --> A'             
     e( 20 - 20) =     -5.74033  eV     1   --> A''            
     e( 21 - 21) =     -4.73494  eV     1   --> A''            
     e( 22 - 22) =     -3.38403  eV     1   --> A''            
     e( 23 - 23) =     -2.50401  eV     1   --> A''            
     e( 24 - 24) =     -1.41820  eV     1   --> A''            
     e( 25 - 25) =      0.13033  eV     1   --> A''            
     e( 26 - 26) =      0.13868  eV     1   --> A'             
     e( 27 - 27) =      0.47729  eV     1   --> A'             
     e( 28 - 28) =      0.75145  eV     1   --> A'             
     e( 29 - 29) =      1.06494  eV     1   --> A''            
     e( 30 - 30) =      1.21202  eV     1   --> A'             
     e( 31 - 31) =      1.49484  eV     1   --> A''            
     e( 32 - 32) =      1.55935  eV     1   --> A'             
     e( 33 - 33) =      1.76438  eV     1   --> A''            
     e( 34 - 34) =      1.85996  eV     1   --> A'             
     e( 35 - 35) =      2.19756  eV     1   --> A'             
     e( 36 - 36) =      2.32573  eV     1   --> A'             
     e( 37 - 37) =      2.84596  eV     1   --> A''            
     e( 38 - 38) =      3.00460  eV     1   --> A'             
     e( 39 - 39) =      3.25387  eV     1   --> A'             
     e( 40 - 40) =      3.35333  eV     1   --> A''            
     e( 41 - 41) =      3.41633  eV     1   --> A''            
     e( 42 - 42) =      3.42487  eV     1   --> A''            
     e( 43 - 43) =      3.52917  eV     1   --> A'             
     e( 44 - 44) =      3.57845  eV     1   --> A''            
     e( 45 - 45) =      3.81604  eV     1   --> A'             
     e( 46 - 46) =      3.90495  eV     1   --> A''            
     e( 47 - 47) =      4.31777  eV     1   --> A'             
     e( 48 - 48) =      4.54879  eV     1   --> A'             
     e( 49 - 49) =      4.63531  eV     1   --> A'             
     e( 50 - 50) =      4.73735  eV     1   --> A'             
     e( 51 - 51) =      5.04142  eV     1   --> A''            
     e( 52 - 52) =      5.38161  eV     1   --> A'             
     e( 53 - 53) =      5.46041  eV     1   --> A''            
     e( 54 - 54) =      5.70686  eV     1   --> A''            
     e( 55 - 55) =      5.78971  eV     1   --> A'             
     e( 56 - 56) =      5.81317  eV     1   --> A'             
     e( 57 - 57) =      6.00591  eV     1   --> A'             
     e( 58 - 58) =      6.11412  eV     1   --> A''            
     e( 59 - 59) =      6.19154  eV     1   --> A'             
     e( 60 - 60) =      6.34187  eV     1   --> A'             

 **************************************************************************

 **************************************************************************

                    xk=(   0.05500,   0.00000,   0.00000  )

     Band symmetry, C_s (m)     point group:

     e(  1 -  1) =    -21.74875  eV     1   --> A'             
     e(  2 -  2) =    -20.26025  eV     1   --> A'             
     e(  3 -  3) =    -18.03452  eV     1   --> A'             
     e(  4 -  4) =    -16.94538  eV     1   --> A'             
     e(  5 -  5) =    -16.02203  eV     1   --> A'             
     e(  6 -  6) =    -15.39352  eV     1   --> A'             
     e(  7 -  7) =    -15.22949  eV     1   --> A'             
     e(  8 -  8) =    -13.25410  eV     1   --> A'             
     e(  9 -  9) =    -12.84295  eV     1   --> A'             
     e( 10 - 10) =    -12.07078  eV     1   --> A'             
     e( 11 - 11) =    -10.85643  eV     1   --> A'             
     e( 12 - 12) =    -10.69785  eV     1   --> A'             
     e( 13 - 13) =     -9.96235  eV     1   --> A'             
     e( 14 - 14) =     -9.82192  eV     1   --> A''            
     e( 15 - 15) =     -8.68429  eV     1   --> A'             
     e( 16 - 16) =     -8.19319  eV     1   --> A''            
     e( 17 - 17) =     -8.12025  eV     1   --> A'             
     e( 18 - 18) =     -6.85684  eV     1   --> A'             
     e( 19 - 19) =     -6.36330  eV     1   --> A'             
     e( 20 - 20) =     -5.73897  eV     1   --> A''            
     e( 21 - 21) =     -4.75575  eV     1   --> A''            
     e( 22 - 22) =     -3.41976  eV     1   --> A''            
     e( 23 - 23) =     -2.46985  eV     1   --> A''            
     e( 24 - 24) =     -1.39418  eV     1   --> A''            
     e( 25 - 25) =      0.12330  eV     1   --> A''            
     e( 26 - 26) =      0.14269  eV     1   --> A'             
     e( 27 - 27) =      0.48146  eV     1   --> A'             
     e( 28 - 28) =      0.75557  eV     1   --> A'             
     e( 29 - 29) =      1.06972  eV     1   --> A''            
     e( 30 - 30) =      1.21621  eV     1   --> A'             
     e( 31 - 31) =      1.49941  eV     1   --> A''            
     e( 32 - 32) =      1.56358  eV     1   --> A'             
     e( 33 - 33) =      1.76860  eV     1   --> A''            
     e( 34 - 34) =      1.86411  eV     1   --> A'             
     e( 35 - 35) =      2.20152  eV     1   --> A'             
     e( 36 - 36) =      2.32989  eV     1   --> A'             
     e( 37 - 37) =      2.85095  eV     1   --> A''            
     e( 38 - 38) =      3.00876  eV     1   --> A'             
     e( 39 - 39) =      3.25829  eV     1   --> A'             
     e( 40 - 40) =      3.35784  eV     1   --> A''            
     e( 41 - 41) =      3.42058  eV     1   --> A''            
     e( 42 - 42) =      3.42327  eV     1   --> A''            
     e( 43 - 43) =      3.53337  eV     1   --> A'             
     e( 44 - 44) =      3.57463  eV     1   --> A''            
     e( 45 - 45) =      3.82101  eV     1   --> A'             
     e( 46 - 46) =      3.90917  eV     1   --> A''            
     e( 47 - 47) =      4.32132  eV     1   --> A'             
     e( 48 - 48) =      4.55322  eV     1   --> A'             
     e( 49 - 49) =      4.63861  eV     1   --> A'             
     e( 50 - 50) =      4.73788  eV     1   --> A'             
     e( 51 - 51) =      5.04607  eV     1   --> A''            
     e( 52 - 52) =      5.38593  eV     1   --> A'             
     e( 53 - 53) =      5.46490  eV     1   --> A''            
     e( 54 - 54) =      5.71221  eV     1   --> A''            
     e( 55 - 55) =      5.79246  eV     1   --> A'             
     e( 56 - 56) =      5.81719  eV     1   --> A'             
     e( 57 - 57) =      5.99266  eV     1   --> A'             
     e( 58 - 58) =      6.11873  eV     1   --> A''            
     e( 59 - 59) =      6.19277  eV     1   --> A'             
     e( 60 - 60) =      6.32333  eV     1   --> A'             

 **************************************************************************

 **************************************************************************

                    xk=(   0.06000,   0.00000,   0.00000  )

     Band symmetry, C_s (m)     point group:

     e(  1 -  1) =    -21.74546  eV     1   --> A'             
     e(  2 -  2) =    -20.25714  eV     1   --> A'             
     e(  3 -  3) =    -18.03299  eV     1   --> A'             
     e(  4 -  4) =    -16.98076  eV     1   --> A'             
     e(  5 -  5) =    -16.04613  eV     1   --> A'             
     e(  6 -  6) =    -15.35335  eV     1   --> A'             
     e(  7 -  7) =    -15.21635  eV     1   --> A'             
     e(  8 -  8) =    -13.27659  eV     1   --> A'             
     e(  9 -  9) =    -12.82602  eV     1   --> A'             
     e( 10 - 10) =    -12.05611  eV     1   --> A'             
     e( 11 - 11) =    -10.84395  eV     1   --> A'             
     e( 12 - 12) =    -10.71623  eV     1   --> A'             
     e( 13 - 13) =     -9.95266  eV     1   --> A'             
     e( 14 - 14) =     -9.81798  eV     1   --> A''            
     e( 15 - 15) =     -8.67739  eV     1   --> A'             
     e( 16 - 16) =     -8.18956  eV     1   --> A''            
     e( 17 - 17) =     -8.13110  eV     1   --> A'             
     e( 18 - 18) =     -6.86094  eV     1   --> A'             
     e( 19 - 19) =     -6.37074  eV     1   --> A'             
     e( 20 - 20) =     -5.73748  eV     1   --> A''            
     e( 21 - 21) =     -4.77817  eV     1   --> A''            
     e( 22 - 22) =     -3.45612  eV     1   --> A''            
     e( 23 - 23) =     -2.43521  eV     1   --> A''            
     e( 24 - 24) =     -1.36825  eV     1   --> A''            
     e( 25 - 25) =      0.11565  eV     1   --> A''            
     e( 26 - 26) =      0.14708  eV     1   --> A'             
     e( 27 - 27) =      0.48603  eV     1   --> A'             
     e( 28 - 28) =      0.76009  eV     1   --> A'             
     e( 29 - 29) =      1.07495  eV     1   --> A''            
     e( 30 - 30) =      1.22080  eV     1   --> A'             
     e( 31 - 31) =      1.50441  eV     1   --> A''            
     e( 32 - 32) =      1.56822  eV     1   --> A'             
     e( 33 - 33) =      1.77322  eV     1   --> A''            
     e( 34 - 34) =      1.86865  eV     1   --> A'             
     e( 35 - 35) =      2.20585  eV     1   --> A'             
     e( 36 - 36) =      2.33444  eV     1   --> A'             
     e( 37 - 37) =      2.85641  eV     1   --> A''            
     e( 38 - 38) =      3.01332  eV     1   --> A'             
     e( 39 - 39) =      3.26312  eV     1   --> A'             
     e( 40 - 40) =      3.36276  eV     1   --> A''            
     e( 41 - 41) =      3.42078  eV     1   --> A''            
     e( 42 - 42) =      3.42524  eV     1   --> A''            
     e( 43 - 43) =      3.53796  eV     1   --> A'             
     e( 44 - 44) =      3.57124  eV     1   --> A''            
     e( 45 - 45) =      3.82642  eV     1   --> A'             
     e( 46 - 46) =      3.91378  eV     1   --> A''            
     e( 47 - 47) =      4.32520  eV     1   --> A'             
     e( 48 - 48) =      4.55802  eV     1   --> A'             
     e( 49 - 49) =      4.64217  eV     1   --> A'             
     e( 50 - 50) =      4.73857  eV     1   --> A'             
     e( 51 - 51) =      5.05115  eV     1   --> A''            
     e( 52 - 52) =      5.39053  eV     1   --> A'             
     e( 53 - 53) =      5.46982  eV     1   --> A''            
     e( 54 - 54) =      5.71807  eV     1   --> A''            
     e( 55 - 55) =      5.79532  eV     1   --> A'             
     e( 56 - 56) =      5.82157  eV     1   --> A'             
     e( 57 - 57) =      5.97816  eV     1   --> A'             
     e( 58 - 58) =      6.12378  eV     1   --> A''            
     e( 59 - 59) =      6.19319  eV     1   --> A'             
     e( 60 - 60) =      6.30478  eV     1   --> A'             

 **************************************************************************

 **************************************************************************

                    xk=(   0.06500,   0.00000,   0.00000  )

     Band symmetry, C_s (m)     point group:

     e(  1 -  1) =    -21.74188  eV     1   --> A'             
     e(  2 -  2) =    -20.25377  eV     1   --> A'             
     e(  3 -  3) =    -18.03139  eV     1   --> A'             
     e(  4 -  4) =    -17.01721  eV     1   --> A'             
     e(  5 -  5) =    -16.07131  eV     1   --> A'             
     e(  6 -  6) =    -15.31164  eV     1   --> A'             
     e(  7 -  7) =    -15.20293  eV     1   --> A'             
     e(  8 -  8) =    -13.30024  eV     1   --> A'             
     e(  9 -  9) =    -12.80777  eV     1   --> A'             
     e( 10 - 10) =    -12.04089  eV     1   --> A'             
     e( 11 - 11) =    -10.83046  eV     1   --> A'             
     e( 12 - 12) =    -10.73558  eV     1   --> A'             
     e( 13 - 13) =     -9.94260  eV     1   --> A'             
     e( 14 - 14) =     -9.81371  eV     1   --> A''            
     e( 15 - 15) =     -8.67004  eV     1   --> A'             
     e( 16 - 16) =     -8.18563  eV     1   --> A''            
     e( 17 - 17) =     -8.14280  eV     1   --> A'             
     e( 18 - 18) =     -6.86547  eV     1   --> A'             
     e( 19 - 19) =     -6.37879  eV     1   --> A'             
     e( 20 - 20) =     -5.73588  eV     1   --> A''            
     e( 21 - 21) =     -4.80213  eV     1   --> A''            
     e( 22 - 22) =     -3.49299  eV     1   --> A''            
     e( 23 - 23) =     -2.40019  eV     1   --> A''            
     e( 24 - 24) =     -1.34047  eV     1   --> A''            
     e( 25 - 25) =      0.10740  eV     1   --> A''            
     e( 26 - 26) =      0.15185  eV     1   --> A'             
     e( 27 - 27) =      0.49099  eV     1   --> A'             
     e( 28 - 28) =      0.76500  eV     1   --> A'             
     e( 29 - 29) =      1.08061  eV     1   --> A''            
     e( 30 - 30) =      1.22578  eV     1   --> A'             
     e( 31 - 31) =      1.50983  eV     1   --> A''            
     e( 32 - 32) =      1.57326  eV     1   --> A'             
     e( 33 - 33) =      1.77825  eV     1   --> A''            
     e( 34 - 34) =      1.87360  eV     1   --> A'             
     e( 35 - 35) =      2.21056  eV     1   --> A'             
     e( 36 - 36) =      2.33940  eV     1   --> A'             
     e( 37 - 37) =      2.86234  eV     1   --> A''            
     e( 38 - 38) =      3.01827  eV     1   --> A'             
     e( 39 - 39) =      3.26836  eV     1   --> A'             
     e( 40 - 40) =      3.36810  eV     1   --> A''            
     e( 41 - 41) =      3.41720  eV     1   --> A''            
     e( 42 - 42) =      3.43030  eV     1   --> A''            
     e( 43 - 43) =      3.54296  eV     1   --> A'             
     e( 44 - 44) =      3.56850  eV     1   --> A''            
     e( 45 - 45) =      3.83227  eV     1   --> A'             
     e( 46 - 46) =      3.91879  eV     1   --> A''            
     e( 47 - 47) =      4.32941  eV     1   --> A'             
     e( 48 - 48) =      4.56317  eV     1   --> A'             
     e( 49 - 49) =      4.64598  eV     1   --> A'             
     e( 50 - 50) =      4.73947  eV     1   --> A'             
     e( 51 - 51) =      5.05667  eV     1   --> A''            
     e( 52 - 52) =      5.39536  eV     1   --> A'             
     e( 53 - 53) =      5.47515  eV     1   --> A''            
     e( 54 - 54) =      5.72442  eV     1   --> A''            
     e( 55 - 55) =      5.79816  eV     1   --> A'             
     e( 56 - 56) =      5.82631  eV     1   --> A'             
     e( 57 - 57) =      5.96253  eV     1   --> A'             
     e( 58 - 58) =      6.12925  eV     1   --> A''            
     e( 59 - 59) =      6.19205  eV     1   --> A'             
     e( 60 - 60) =      6.28714  eV     1   --> A'             

 **************************************************************************

 **************************************************************************

                    xk=(   0.07000,   0.00000,   0.00000  )

     Band symmetry, C_s (m)     point group:

     e(  1 -  1) =    -21.73802  eV     1   --> A'             
     e(  2 -  2) =    -20.25012  eV     1   --> A'             
     e(  3 -  3) =    -18.02971  eV     1   --> A'             
     e(  4 -  4) =    -17.05454  eV     1   --> A'             
     e(  5 -  5) =    -16.09748  eV     1   --> A'             
     e(  6 -  6) =    -15.26860  eV     1   --> A'             
     e(  7 -  7) =    -15.18931  eV     1   --> A'             
     e(  8 -  8) =    -13.32493  eV     1   --> A'             
     e(  9 -  9) =    -12.78824  eV     1   --> A'             
     e( 10 - 10) =    -12.02521  eV     1   --> A'             
     e( 11 - 11) =    -10.81597  eV     1   --> A'             
     e( 12 - 12) =    -10.75584  eV     1   --> A'             
     e( 13 - 13) =     -9.93225  eV     1   --> A'             
     e( 14 - 14) =     -9.80909  eV     1   --> A''            
     e( 15 - 15) =     -8.66227  eV     1   --> A'             
     e( 16 - 16) =     -8.18138  eV     1   --> A''            
     e( 17 - 17) =     -8.15533  eV     1   --> A'             
     e( 18 - 18) =     -6.87047  eV     1   --> A'             
     e( 19 - 19) =     -6.38746  eV     1   --> A'             
     e( 20 - 20) =     -5.73417  eV     1   --> A''            
     e( 21 - 21) =     -4.82754  eV     1   --> A''            
     e( 22 - 22) =     -3.53028  eV     1   --> A''            
     e( 23 - 23) =     -2.36488  eV     1   --> A''            
     e( 24 - 24) =     -1.31094  eV     1   --> A''            
     e( 25 - 25) =      0.09857  eV     1   --> A''            
     e( 26 - 26) =      0.15701  eV     1   --> A'             
     e( 27 - 27) =      0.49634  eV     1   --> A'             
     e( 28 - 28) =      0.77030  eV     1   --> A'             
     e( 29 - 29) =      1.08672  eV     1   --> A''            
     e( 30 - 30) =      1.23117  eV     1   --> A'             
     e( 31 - 31) =      1.51569  eV     1   --> A''            
     e( 32 - 32) =      1.57870  eV     1   --> A'             
     e( 33 - 33) =      1.78367  eV     1   --> A''            
     e( 34 - 34) =      1.87894  eV     1   --> A'             
     e( 35 - 35) =      2.21566  eV     1   --> A'             
     e( 36 - 36) =      2.34475  eV     1   --> A'             
     e( 37 - 37) =      2.86873  eV     1   --> A''            
     e( 38 - 38) =      3.02362  eV     1   --> A'             
     e( 39 - 39) =      3.27401  eV     1   --> A'             
     e( 40 - 40) =      3.37382  eV     1   --> A''            
     e( 41 - 41) =      3.41235  eV     1   --> A''            
     e( 42 - 42) =      3.43577  eV     1   --> A''            
     e( 43 - 43) =      3.54836  eV     1   --> A'             
     e( 44 - 44) =      3.56663  eV     1   --> A''            
     e( 45 - 45) =      3.83853  eV     1   --> A'             
     e( 46 - 46) =      3.92421  eV     1   --> A''            
     e( 47 - 47) =      4.33394  eV     1   --> A'             
     e( 48 - 48) =      4.56867  eV     1   --> A'             
     e( 49 - 49) =      4.65002  eV     1   --> A'             
     e( 50 - 50) =      4.74060  eV     1   --> A'             
     e( 51 - 51) =      5.06262  eV     1   --> A''            
     e( 52 - 52) =      5.40038  eV     1   --> A'             
     e( 53 - 53) =      5.48091  eV     1   --> A''            
     e( 54 - 54) =      5.73127  eV     1   --> A''            
     e( 55 - 55) =      5.80081  eV     1   --> A'             
     e( 56 - 56) =      5.83141  eV     1   --> A'             
     e( 57 - 57) =      5.94592  eV     1   --> A'             
     e( 58 - 58) =      6.13516  eV     1   --> A''            
     e( 59 - 59) =      6.18812  eV     1   --> A'             
     e( 60 - 60) =      6.27183  eV     1   --> A'             

 **************************************************************************

 **************************************************************************

                    xk=(   0.07500,   0.00000,   0.00000  )

     Band symmetry, C_s (m)     point group:

     e(  1 -  1) =    -21.73388  eV     1   --> A'             
     e(  2 -  2) =    -20.24620  eV     1   --> A'             
     e(  3 -  3) =    -18.02800  eV     1   --> A'             
     e(  4 -  4) =    -17.09256  eV     1   --> A'             
     e(  5 -  5) =    -16.12454  eV     1   --> A'             
     e(  6 -  6) =    -15.22438  eV     1   --> A'             
     e(  7 -  7) =    -15.17554  eV     1   --> A'             
     e(  8 -  8) =    -13.35056  eV     1   --> A'             
     e(  9 -  9) =    -12.76747  eV     1   --> A'             
     e( 10 - 10) =    -12.00916  eV     1   --> A'             
     e( 11 - 11) =    -10.80052  eV     1   --> A'             
     e( 12 - 12) =    -10.77691  eV     1   --> A'             
     e( 13 - 13) =     -9.92163  eV     1   --> A'             
     e( 14 - 14) =     -9.80413  eV     1   --> A''            
     e( 15 - 15) =     -8.65410  eV     1   --> A'             
     e( 16 - 16) =     -8.17681  eV     1   --> A''            
     e( 17 - 17) =     -8.16866  eV     1   --> A'             
     e( 18 - 18) =     -6.87593  eV     1   --> A'             
     e( 19 - 19) =     -6.39673  eV     1   --> A'             
     e( 20 - 20) =     -5.73236  eV     1   --> A''            
     e( 21 - 21) =     -4.85432  eV     1   --> A''            
     e( 22 - 22) =     -3.56792  eV     1   --> A''            
     e( 23 - 23) =     -2.32935  eV     1   --> A''            
     e( 24 - 24) =     -1.27973  eV     1   --> A''            
     e( 25 - 25) =      0.08916  eV     1   --> A''            
     e( 26 - 26) =      0.16255  eV     1   --> A'             
     e( 27 - 27) =      0.50209  eV     1   --> A'             
     e( 28 - 28) =      0.77600  eV     1   --> A'             
     e( 29 - 29) =      1.09325  eV     1   --> A''            
     e( 30 - 30) =      1.23696  eV     1   --> A'             
     e( 31 - 31) =      1.52197  eV     1   --> A''            
     e( 32 - 32) =      1.58454  eV     1   --> A'             
     e( 33 - 33) =      1.78950  eV     1   --> A''            
     e( 34 - 34) =      1.88467  eV     1   --> A'             
     e( 35 - 35) =      2.22114  eV     1   --> A'             
     e( 36 - 36) =      2.35049  eV     1   --> A'             
     e( 37 - 37) =      2.87559  eV     1   --> A''            
     e( 38 - 38) =      3.02936  eV     1   --> A'             
     e( 39 - 39) =      3.28006  eV     1   --> A'             
     e( 40 - 40) =      3.37987  eV     1   --> A''            
     e( 41 - 41) =      3.40615  eV     1   --> A''            
     e( 42 - 42) =      3.44163  eV     1   --> A''            
     e( 43 - 43) =      3.55415  eV     1   --> A'             
     e( 44 - 44) =      3.56578  eV     1   --> A''            
     e( 45 - 45) =      3.84522  eV     1   --> A'             
     e( 46 - 46) =      3.93002  eV     1   --> A''            
     e( 47 - 47) =      4.33880  eV     1   --> A'             
     e( 48 - 48) =      4.57448  eV     1   --> A'             
     e( 49 - 49) =      4.65426  eV     1   --> A'             
     e( 50 - 50) =      4.74201  eV     1   --> A'             
     e( 51 - 51) =      5.06901  eV     1   --> A''            
     e( 52 - 52) =      5.40552  eV     1   --> A'             
     e( 53 - 53) =      5.48708  eV     1   --> A''            
     e( 54 - 54) =      5.73861  eV     1   --> A''            
     e( 55 - 55) =      5.80293  eV     1   --> A'             
     e( 56 - 56) =      5.83686  eV     1   --> A'             
     e( 57 - 57) =      5.92870  eV     1   --> A'             
     e( 58 - 58) =      6.14150  eV     1   --> A''            
     e( 59 - 59) =      6.17989  eV     1   --> A'             
     e( 60 - 60) =      6.26051  eV     1   --> A'             

 **************************************************************************

 **************************************************************************

                    xk=(   0.08000,   0.00000,   0.00000  )

     Band symmetry, C_s (m)     point group:

     e(  1 -  1) =    -21.72945  eV     1   --> A'             
     e(  2 -  2) =    -20.24202  eV     1   --> A'             
     e(  3 -  3) =    -18.02626  eV     1   --> A'             
     e(  4 -  4) =    -17.13111  eV     1   --> A'             
     e(  5 -  5) =    -16.15240  eV     1   --> A'             
     e(  6 -  6) =    -15.17913  eV     1   --> A'             
     e(  7 -  7) =    -15.16168  eV     1   --> A'             
     e(  8 -  8) =    -13.37703  eV     1   --> A'             
     e(  9 -  9) =    -12.74550  eV     1   --> A'             
     e( 10 - 10) =    -11.99281  eV     1   --> A'             
     e( 11 - 11) =    -10.79873  eV     1   --> A'             
     e( 12 - 12) =    -10.78413  eV     1   --> A'             
     e( 13 - 13) =     -9.91079  eV     1   --> A'             
     e( 14 - 14) =     -9.79883  eV     1   --> A''            
     e( 15 - 15) =     -8.64558  eV     1   --> A'             
     e( 16 - 16) =     -8.18278  eV     1   --> A'             
     e( 17 - 17) =     -8.17194  eV     1   --> A''            
     e( 18 - 18) =     -6.88190  eV     1   --> A'             
     e( 19 - 19) =     -6.40660  eV     1   --> A'             
     e( 20 - 20) =     -5.73044  eV     1   --> A''            
     e( 21 - 21) =     -4.88238  eV     1   --> A''            
     e( 22 - 22) =     -3.60586  eV     1   --> A''            
     e( 23 - 23) =     -2.29366  eV     1   --> A''            
     e( 24 - 24) =     -1.24692  eV     1   --> A''            
     e( 25 - 25) =      0.07921  eV     1   --> A''            
     e( 26 - 26) =      0.16847  eV     1   --> A'             
     e( 27 - 27) =      0.50822  eV     1   --> A'             
     e( 28 - 28) =      0.78209  eV     1   --> A'             
     e( 29 - 29) =      1.10022  eV     1   --> A''            
     e( 30 - 30) =      1.24314  eV     1   --> A'             
     e( 31 - 31) =      1.52867  eV     1   --> A''            
     e( 32 - 32) =      1.59079  eV     1   --> A'             
     e( 33 - 33) =      1.79573  eV     1   --> A''            
     e( 34 - 34) =      1.89081  eV     1   --> A'             
     e( 35 - 35) =      2.22700  eV     1   --> A'             
     e( 36 - 36) =      2.35663  eV     1   --> A'             
     e( 37 - 37) =      2.88290  eV     1   --> A''            
     e( 38 - 38) =      3.03551  eV     1   --> A'             
     e( 39 - 39) =      3.28651  eV     1   --> A'             
     e( 40 - 40) =      3.38583  eV     1   --> A''            
     e( 41 - 41) =      3.39891  eV     1   --> A''            
     e( 42 - 42) =      3.44791  eV     1   --> A''            
     e( 43 - 43) =      3.56035  eV     1   --> A'             
     e( 44 - 44) =      3.56606  eV     1   --> A''            
     e( 45 - 45) =      3.85230  eV     1   --> A'             
     e( 46 - 46) =      3.93624  eV     1   --> A''            
     e( 47 - 47) =      4.34397  eV     1   --> A'             
     e( 48 - 48) =      4.58058  eV     1   --> A'             
     e( 49 - 49) =      4.65868  eV     1   --> A'             
     e( 50 - 50) =      4.74372  eV     1   --> A'             
     e( 51 - 51) =      5.07583  eV     1   --> A''            
     e( 52 - 52) =      5.41071  eV     1   --> A'             
     e( 53 - 53) =      5.49366  eV     1   --> A''            
     e( 54 - 54) =      5.74645  eV     1   --> A''            
     e( 55 - 55) =      5.80392  eV     1   --> A'             
     e( 56 - 56) =      5.84263  eV     1   --> A'             
     e( 57 - 57) =      5.91148  eV     1   --> A'             
     e( 58 - 58) =      6.14826  eV     1   --> A''            
     e( 59 - 59) =      6.16672  eV     1   --> A'             
     e( 60 - 60) =      6.25400  eV     1   --> A'             

 **************************************************************************

 **************************************************************************

                    xk=(   0.08500,   0.00000,   0.00000  )

     Band symmetry, C_s (m)     point group:

     e(  1 -  1) =    -21.72473  eV     1   --> A'             
     e(  2 -  2) =    -20.23756  eV     1   --> A'             
     e(  3 -  3) =    -18.02452  eV     1   --> A'             
     e(  4 -  4) =    -17.17005  eV     1   --> A'             
     e(  5 -  5) =    -16.18099  eV     1   --> A'             
     e(  6 -  6) =    -15.14777  eV     1   --> A'             
     e(  7 -  7) =    -15.13296  eV     1   --> A'             
     e(  8 -  8) =    -13.40425  eV     1   --> A'             
     e(  9 -  9) =    -12.72236  eV     1   --> A'             
     e( 10 - 10) =    -11.97623  eV     1   --> A'             
     e( 11 - 11) =    -10.82123  eV     1   --> A'             
     e( 12 - 12) =    -10.76682  eV     1   --> A'             
     e( 13 - 13) =     -9.89976  eV     1   --> A'             
     e( 14 - 14) =     -9.79319  eV     1   --> A''            
     e( 15 - 15) =     -8.63673  eV     1   --> A'             
     e( 16 - 16) =     -8.19765  eV     1   --> A'             
     e( 17 - 17) =     -8.16674  eV     1   --> A''            
     e( 18 - 18) =     -6.88837  eV     1   --> A'             
     e( 19 - 19) =     -6.41706  eV     1   --> A'             
     e( 20 - 20) =     -5.72842  eV     1   --> A''            
     e( 21 - 21) =     -4.91164  eV     1   --> A''            
     e( 22 - 22) =     -3.64404  eV     1   --> A''            
     e( 23 - 23) =     -2.25784  eV     1   --> A''            
     e( 24 - 24) =     -1.21261  eV     1   --> A''            
     e( 25 - 25) =      0.06871  eV     1   --> A''            
     e( 26 - 26) =      0.17478  eV     1   --> A'             
     e( 27 - 27) =      0.51474  eV     1   --> A'             
     e( 28 - 28) =      0.78857  eV     1   --> A'             
     e( 29 - 29) =      1.10762  eV     1   --> A''            
     e( 30 - 30) =      1.24973  eV     1   --> A'             
     e( 31 - 31) =      1.53580  eV     1   --> A''            
     e( 32 - 32) =      1.59743  eV     1   --> A'             
     e( 33 - 33) =      1.80236  eV     1   --> A''            
     e( 34 - 34) =      1.89734  eV     1   --> A'             
     e( 35 - 35) =      2.23325  eV     1   --> A'             
     e( 36 - 36) =      2.36317  eV     1   --> A'             
     e( 37 - 37) =      2.89067  eV     1   --> A''            
     e( 38 - 38) =      3.04205  eV     1   --> A'             
     e( 39 - 39) =      3.29337  eV     1   --> A'             
     e( 40 - 40) =      3.38620  eV     1   --> A''            
     e( 41 - 41) =      3.39612  eV     1   --> A''            
     e( 42 - 42) =      3.45458  eV     1   --> A''            
     e( 43 - 43) =      3.56695  eV     1   --> A'             
     e( 44 - 44) =      3.56751  eV     1   --> A''            
     e( 45 - 45) =      3.85978  eV     1   --> A'             
     e( 46 - 46) =      3.94285  eV     1   --> A''            
     e( 47 - 47) =      4.34945  eV     1   --> A'             
     e( 48 - 48) =      4.58697  eV     1   --> A'             
     e( 49 - 49) =      4.66324  eV     1   --> A'             
     e( 50 - 50) =      4.74579  eV     1   --> A'             
     e( 51 - 51) =      5.08309  eV     1   --> A''            
     e( 52 - 52) =      5.41587  eV     1   --> A'             
     e( 53 - 53) =      5.50066  eV     1   --> A''            
     e( 54 - 54) =      5.75476  eV     1   --> A''            
     e( 55 - 55) =      5.80265  eV     1   --> A'             
     e( 56 - 56) =      5.84873  eV     1   --> A'             
     e( 57 - 57) =      5.89542  eV     1   --> A'             
     e( 58 - 58) =      6.14954  eV     1   --> A'             
     e( 59 - 59) =      6.15545  eV     1   --> A''            
     e( 60 - 60) =      6.25156  eV     1   --> A'             

 **************************************************************************

 **************************************************************************

                    xk=(   0.09000,   0.00000,   0.00000  )

     Band symmetry, C_s (m)     point group:

     e(  1 -  1) =    -21.71973  eV     1   --> A'             
     e(  2 -  2) =    -20.23284  eV     1   --> A'             
     e(  3 -  3) =    -18.02283  eV     1   --> A'             
     e(  4 -  4) =    -17.20925  eV     1   --> A'             
     e(  5 -  5) =    -16.21025  eV     1   --> A'             
     e(  6 -  6) =    -15.13383  eV     1   --> A'             
     e(  7 -  7) =    -15.08598  eV     1   --> A'             
     e(  8 -  8) =    -13.43213  eV     1   --> A'             
     e(  9 -  9) =    -12.69810  eV     1   --> A'             
     e( 10 - 10) =    -11.95947  eV     1   --> A'             
     e( 11 - 11) =    -10.84435  eV     1   --> A'             
     e( 12 - 12) =    -10.74863  eV     1   --> A'             
     e( 13 - 13) =     -9.88856  eV     1   --> A'             
     e( 14 - 14) =     -9.78720  eV     1   --> A''            
     e( 15 - 15) =     -8.62760  eV     1   --> A'             
     e( 16 - 16) =     -8.21325  eV     1   --> A'             
     e( 17 - 17) =     -8.16124  eV     1   --> A''            
     e( 18 - 18) =     -6.89537  eV     1   --> A'             
     e( 19 - 19) =     -6.42810  eV     1   --> A'             
     e( 20 - 20) =     -5.72632  eV     1   --> A''            
     e( 21 - 21) =     -4.94202  eV     1   --> A''            
     e( 22 - 22) =     -3.68243  eV     1   --> A''            
     e( 23 - 23) =     -2.22194  eV     1   --> A''            
     e( 24 - 24) =     -1.17685  eV     1   --> A''            
     e( 25 - 25) =      0.05769  eV     1   --> A''            
     e( 26 - 26) =      0.18148  eV     1   --> A'             
     e( 27 - 27) =      0.52165  eV     1   --> A'             
     e( 28 - 28) =      0.79545  eV     1   --> A'             
     e( 29 - 29) =      1.11544  eV     1   --> A''            
     e( 30 - 30) =      1.25671  eV     1   --> A'             
     e( 31 - 31) =      1.54334  eV     1   --> A''            
     e( 32 - 32) =      1.60447  eV     1   --> A'             
     e( 33 - 33) =      1.80940  eV     1   --> A''            
     e( 34 - 34) =      1.90426  eV     1   --> A'             
     e( 35 - 35) =      2.23989  eV     1   --> A'             
     e( 36 - 36) =      2.37010  eV     1   --> A'             
     e( 37 - 37) =      2.89890  eV     1   --> A''            
     e( 38 - 38) =      3.04899  eV     1   --> A'             
     e( 39 - 39) =      3.30061  eV     1   --> A'             
     e( 40 - 40) =      3.37645  eV     1   --> A''            
     e( 41 - 41) =      3.40233  eV     1   --> A''            
     e( 42 - 42) =      3.46166  eV     1   --> A''            
     e( 43 - 43) =      3.57012  eV     1   --> A''            
     e( 44 - 44) =      3.57395  eV     1   --> A'             
     e( 45 - 45) =      3.86763  eV     1   --> A'             
     e( 46 - 46) =      3.94987  eV     1   --> A''            
     e( 47 - 47) =      4.35524  eV     1   --> A'             
[...]
     e( 21 - 21) =     -6.45236  eV     1   --> A''            
     e( 22 - 22) =     -5.39408  eV     1   --> A''            
     e( 23 - 23) =     -1.02597  eV     1   --> A''            
     e( 24 - 24) =      0.48980  eV     1   --> A''            
     e( 25 - 25) =      0.88809  eV     1   --> A''            
     e( 26 - 26) =      1.85184  eV     1   --> A'             
     e( 27 - 27) =      2.16288  eV     1   --> A'             
     e( 28 - 28) =      2.19409  eV     1   --> A'             
     e( 29 - 29) =      2.53310  eV     1   --> A'             
     e( 30 - 30) =      2.55801  eV     1   --> A'             
     e( 31 - 31) =      2.70357  eV     1   --> A''            
     e( 32 - 32) =      2.87064  eV     1   --> A'             
     e( 33 - 33) =      3.03000  eV     1   --> A'             
     e( 34 - 34) =      3.04571  eV     1   --> A''            
     e( 35 - 35) =      3.21193  eV     1   --> A''            
     e( 36 - 36) =      3.34446  eV     1   --> A'             
     e( 37 - 37) =      3.38622  eV     1   --> A'             
     e( 38 - 38) =      3.43139  eV     1   --> A''            
     e( 39 - 39) =      3.59427  eV     1   --> A''            
     e( 40 - 40) =      3.61587  eV     1   --> A''            
     e( 41 - 41) =      3.67728  eV     1   --> A'             
     e( 42 - 42) =      3.70230  eV     1   --> A'             
     e( 43 - 43) =      3.77779  eV     1   --> A''            
     e( 44 - 44) =      3.91431  eV     1   --> A''            
     e( 45 - 45) =      3.93821  eV     1   --> A'             
     e( 46 - 46) =      3.99895  eV     1   --> A'             
     e( 47 - 47) =      4.12016  eV     1   --> A'             
     e( 48 - 48) =      4.26652  eV     1   --> A'             
     e( 49 - 49) =      4.45186  eV     1   --> A'             
     e( 50 - 50) =      4.82069  eV     1   --> A'             
     e( 51 - 51) =      4.85556  eV     1   --> A''            
     e( 52 - 52) =      4.99468  eV     1   --> A'             
     e( 53 - 53) =      5.09754  eV     1   --> A'             
     e( 54 - 54) =      5.17215  eV     1   --> A''            
     e( 55 - 55) =      5.22439  eV     1   --> A''            
     e( 56 - 56) =      5.23537  eV     1   --> A'             
     e( 57 - 57) =      5.25319  eV     1   --> A'             
     e( 58 - 58) =      5.26795  eV     1   --> A''            
     e( 59 - 59) =      5.36701  eV     1   --> A''            
     e( 60 - 60) =      5.37709  eV     1   --> A'             

 **************************************************************************

 **************************************************************************

                    xk=(   0.48500,   0.00000,   0.00000  )

     Band symmetry, C_s (m)     point group:

     e(  1 -  1) =    -20.48314  eV     1   --> A'             
     e(  2 -  2) =    -20.20251  eV     1   --> A'             
     e(  3 -  3) =    -19.20811  eV     1   --> A'             
     e(  4 -  4) =    -18.57504  eV     1   --> A'             
     e(  5 -  5) =    -17.36673  eV     1   --> A'             
     e(  6 -  6) =    -15.36879  eV     1   --> A'             
     e(  7 -  7) =    -14.13474  eV     1   --> A'             
     e(  8 -  8) =    -12.79178  eV     1   --> A'             
     e(  9 -  9) =    -11.45487  eV     1   --> A'             
     e( 10 - 10) =    -10.57804  eV     1   --> A'             
     e( 11 - 11) =     -9.71301  eV     1   --> A'             
     e( 12 - 12) =     -9.53392  eV     1   --> A'             
     e( 13 - 13) =     -9.29363  eV     1   --> A'             
     e( 14 - 14) =     -9.06877  eV     1   --> A'             
     e( 15 - 15) =     -8.97200  eV     1   --> A'             
     e( 16 - 16) =     -8.67990  eV     1   --> A'             
     e( 17 - 17) =     -8.28231  eV     1   --> A''            
     e( 18 - 18) =     -8.09530  eV     1   --> A'             
     e( 19 - 19) =     -8.04823  eV     1   --> A''            
     e( 20 - 20) =     -6.87199  eV     1   --> A''            
     e( 21 - 21) =     -6.46772  eV     1   --> A''            
     e( 22 - 22) =     -5.39341  eV     1   --> A''            
     e( 23 - 23) =     -1.02785  eV     1   --> A''            
     e( 24 - 24) =      0.51451  eV     1   --> A''            
     e( 25 - 25) =      0.86312  eV     1   --> A''            
     e( 26 - 26) =      1.88059  eV     1   --> A'             
     e( 27 - 27) =      2.16389  eV     1   --> A'             
     e( 28 - 28) =      2.18908  eV     1   --> A'             
     e( 29 - 29) =      2.50516  eV     1   --> A'             
     e( 30 - 30) =      2.59508  eV     1   --> A'             
     e( 31 - 31) =      2.74602  eV     1   --> A''            
     e( 32 - 32) =      2.83106  eV     1   --> A'             
     e( 33 - 33) =      3.00747  eV     1   --> A''            
     e( 34 - 34) =      3.06631  eV     1   --> A'             
     e( 35 - 35) =      3.25246  eV     1   --> A''            
     e( 36 - 36) =      3.30525  eV     1   --> A'             
     e( 37 - 37) =      3.42409  eV     1   --> A'             
     e( 38 - 38) =      3.46547  eV     1   --> A''            
     e( 39 - 39) =      3.56971  eV     1   --> A''            
     e( 40 - 40) =      3.63286  eV     1   --> A''            
     e( 41 - 41) =      3.66148  eV     1   --> A'             
     e( 42 - 42) =      3.71484  eV     1   --> A'             
     e( 43 - 43) =      3.74114  eV     1   --> A''            
     e( 44 - 44) =      3.87300  eV     1   --> A''            
     e( 45 - 45) =      3.93955  eV     1   --> A'             
     e( 46 - 46) =      3.98674  eV     1   --> A'             
     e( 47 - 47) =      4.15424  eV     1   --> A'             
     e( 48 - 48) =      4.23536  eV     1   --> A'             
     e( 49 - 49) =      4.41557  eV     1   --> A'             
     e( 50 - 50) =      4.85673  eV     1   --> A'             
     e( 51 - 51) =      4.89585  eV     1   --> A''            
     e( 52 - 52) =      5.02341  eV     1   --> A'             
     e( 53 - 53) =      5.06741  eV     1   --> A'             
     e( 54 - 54) =      5.14125  eV     1   --> A''            
     e( 55 - 55) =      5.22294  eV     1   --> A'             
     e( 56 - 56) =      5.23959  eV     1   --> A'             
     e( 57 - 57) =      5.26305  eV     1   --> A''            
     e( 58 - 58) =      5.29341  eV     1   --> A''            
     e( 59 - 59) =      5.40537  eV     1   --> A''            
     e( 60 - 60) =      5.41455  eV     1   --> A'             

 **************************************************************************

 **************************************************************************

                    xk=(   0.49000,   0.00000,   0.00000  )

     Band symmetry, C_s (m)     point group:

     e(  1 -  1) =    -20.46905  eV     1   --> A'             
     e(  2 -  2) =    -20.21792  eV     1   --> A'             
     e(  3 -  3) =    -19.20310  eV     1   --> A'             
     e(  4 -  4) =    -18.58120  eV     1   --> A'             
     e(  5 -  5) =    -17.36551  eV     1   --> A'             
     e(  6 -  6) =    -15.37115  eV     1   --> A'             
     e(  7 -  7) =    -14.13261  eV     1   --> A'             
     e(  8 -  8) =    -12.79483  eV     1   --> A'             
     e(  9 -  9) =    -11.44772  eV     1   --> A'             
     e( 10 - 10) =    -10.57784  eV     1   --> A'             
     e( 11 - 11) =     -9.70240  eV     1   --> A'             
     e( 12 - 12) =     -9.51891  eV     1   --> A'             
     e( 13 - 13) =     -9.31004  eV     1   --> A'             
     e( 14 - 14) =     -9.08104  eV     1   --> A'             
     e( 15 - 15) =     -8.97125  eV     1   --> A'             
     e( 16 - 16) =     -8.67468  eV     1   --> A'             
     e( 17 - 17) =     -8.25752  eV     1   --> A''            
     e( 18 - 18) =     -8.10128  eV     1   --> A'             
     e( 19 - 19) =     -8.07443  eV     1   --> A''            
     e( 20 - 20) =     -6.86156  eV     1   --> A''            
     e( 21 - 21) =     -6.47936  eV     1   --> A''            
     e( 22 - 22) =     -5.39292  eV     1   --> A''            
     e( 23 - 23) =     -1.02920  eV     1   --> A''            
     e( 24 - 24) =      0.53460  eV     1   --> A''            
     e( 25 - 25) =      0.84285  eV     1   --> A''            
     e( 26 - 26) =      1.90570  eV     1   --> A'             
     e( 27 - 27) =      2.13769  eV     1   --> A'             
     e( 28 - 28) =      2.21111  eV     1   --> A'             
     e( 29 - 29) =      2.48189  eV     1   --> A'             
     e( 30 - 30) =      2.63240  eV     1   --> A'             
     e( 31 - 31) =      2.78768  eV     1   --> A''            
     e( 32 - 32) =      2.79186  eV     1   --> A'             
     e( 33 - 33) =      2.96753  eV     1   --> A''            
     e( 34 - 34) =      3.10262  eV     1   --> A'             
     e( 35 - 35) =      3.26698  eV     1   --> A'             
     e( 36 - 36) =      3.29309  eV     1   --> A''            
     e( 37 - 37) =      3.46239  eV     1   --> A'             
     e( 38 - 38) =      3.49684  eV     1   --> A''            
     e( 39 - 39) =      3.52634  eV     1   --> A''            
     e( 40 - 40) =      3.62108  eV     1   --> A'             
     e( 41 - 41) =      3.67182  eV     1   --> A''            
     e( 42 - 42) =      3.70792  eV     1   --> A''            
     e( 43 - 43) =      3.75270  eV     1   --> A'             
     e( 44 - 44) =      3.83208  eV     1   --> A''            
     e( 45 - 45) =      3.90687  eV     1   --> A'             
     e( 46 - 46) =      4.00602  eV     1   --> A'             
     e( 47 - 47) =      4.18617  eV     1   --> A'             
     e( 48 - 48) =      4.20773  eV     1   --> A'             
     e( 49 - 49) =      4.38205  eV     1   --> A'             
     e( 50 - 50) =      4.89280  eV     1   --> A'             
     e( 51 - 51) =      4.93618  eV     1   --> A''            
     e( 52 - 52) =      5.03486  eV     1   --> A'             
     e( 53 - 53) =      5.04930  eV     1   --> A'             
     e( 54 - 54) =      5.10316  eV     1   --> A''            
     e( 55 - 55) =      5.21450  eV     1   --> A'             
     e( 56 - 56) =      5.22261  eV     1   --> A'             
     e( 57 - 57) =      5.30200  eV     1   --> A''            
     e( 58 - 58) =      5.32645  eV     1   --> A''            
     e( 59 - 59) =      5.44406  eV     1   --> A''            
     e( 60 - 60) =      5.44734  eV     1   --> A'             

 **************************************************************************

 **************************************************************************

                    xk=(   0.49500,   0.00000,   0.00000  )

     Band symmetry, C_s (m)     point group:

     e(  1 -  1) =    -20.45970  eV     1   --> A'             
     e(  2 -  2) =    -20.22806  eV     1   --> A'             
     e(  3 -  3) =    -19.20005  eV     1   --> A'             
     e(  4 -  4) =    -18.58495  eV     1   --> A'             
     e(  5 -  5) =    -17.36478  eV     1   --> A'             
     e(  6 -  6) =    -15.37257  eV     1   --> A'             
     e(  7 -  7) =    -14.13133  eV     1   --> A'             
     e(  8 -  8) =    -12.79666  eV     1   --> A'             
     e(  9 -  9) =    -11.44340  eV     1   --> A'             
     e( 10 - 10) =    -10.57777  eV     1   --> A'             
     e( 11 - 11) =     -9.69542  eV     1   --> A'             
     e( 12 - 12) =     -9.50946  eV     1   --> A'             
     e( 13 - 13) =     -9.32053  eV     1   --> A'             
     e( 14 - 14) =     -9.08883  eV     1   --> A'             
     e( 15 - 15) =     -8.97076  eV     1   --> A'             
     e( 16 - 16) =     -8.67149  eV     1   --> A'             
     e( 17 - 17) =     -8.23844  eV     1   --> A''            
     e( 18 - 18) =     -8.10493  eV     1   --> A'             
     e( 19 - 19) =     -8.09436  eV     1   --> A''            
     e( 20 - 20) =     -6.85498  eV     1   --> A''            
     e( 21 - 21) =     -6.48667  eV     1   --> A''            
     e( 22 - 22) =     -5.39263  eV     1   --> A''            
     e( 23 - 23) =     -1.03001  eV     1   --> A''            
     e( 24 - 24) =      0.54804  eV     1   --> A''            
     e( 25 - 25) =      0.82930  eV     1   --> A''            
     e( 26 - 26) =      1.92398  eV     1   --> A'             
     e( 27 - 27) =      2.11873  eV     1   --> A'             
     e( 28 - 28) =      2.22638  eV     1   --> A'             
     e( 29 - 29) =      2.46586  eV     1   --> A'             
     e( 30 - 30) =      2.66908  eV     1   --> A'             
     e( 31 - 31) =      2.75402  eV     1   --> A'             
     e( 32 - 32) =      2.82681  eV     1   --> A''            
     e( 33 - 33) =      2.92913  eV     1   --> A''            
     e( 34 - 34) =      3.13703  eV     1   --> A'             
     e( 35 - 35) =      3.23142  eV     1   --> A'             
     e( 36 - 36) =      3.32799  eV     1   --> A''            
     e( 37 - 37) =      3.49010  eV     1   --> A''            
     e( 38 - 38) =      3.50093  eV     1   --> A'             
     e( 39 - 39) =      3.52169  eV     1   --> A''            
     e( 40 - 40) =      3.58127  eV     1   --> A'             
     e( 41 - 41) =      3.68197  eV     1   --> A''            
     e( 42 - 42) =      3.71109  eV     1   --> A''            
     e( 43 - 43) =      3.79061  eV     1   --> A'             
     e( 44 - 44) =      3.79164  eV     1   --> A''            
     e( 45 - 45) =      3.86932  eV     1   --> A'             
     e( 46 - 46) =      4.02451  eV     1   --> A'             
     e( 47 - 47) =      4.18699  eV     1   --> A'             
     e( 48 - 48) =      4.21225  eV     1   --> A'             
     e( 49 - 49) =      4.35501  eV     1   --> A'             
     e( 50 - 50) =      4.92864  eV     1   --> A'             
     e( 51 - 51) =      4.97578  eV     1   --> A''            
     e( 52 - 52) =      5.00086  eV     1   --> A'             
     e( 53 - 53) =      5.06407  eV     1   --> A''            
     e( 54 - 54) =      5.06909  eV     1   --> A'             
     e( 55 - 55) =      5.20740  eV     1   --> A'             
     e( 56 - 56) =      5.20968  eV     1   --> A'             
     e( 57 - 57) =      5.34100  eV     1   --> A''            
     e( 58 - 58) =      5.36020  eV     1   --> A''            
     e( 59 - 59) =      5.42316  eV     1   --> A''            
     e( 60 - 60) =      5.45047  eV     1   -->   ?

 **************************************************************************

 **************************************************************************

                    xk=(   0.50000,   0.00000,   0.00000  )

     point group C_2v (mm2) 
     there are  4 classes
     the character table:

       E     C2    s_v   s_v' 
A_1    1.00  1.00  1.00  1.00
A_2    1.00  1.00 -1.00 -1.00
B_1    1.00 -1.00  1.00 -1.00
B_2    1.00 -1.00 -1.00  1.00

     the symmetry operations in each class and the name of the first element:

     E        1
                                                                 
     C2       2
                                                                 
     s_v      3
                                                                 
     s_v'     4
                                                                 

     Band symmetry, C_2v (mm2)  point group:

     e(  1 -  1) =    -20.45640  eV     1   --> B_1  D_3  S_3  
     e(  2 -  2) =    -20.23162  eV     1   --> A_1  D_1  S_1  
     e(  3 -  3) =    -19.19902  eV     1   --> B_1  D_3  S_3  
     e(  4 -  4) =    -18.58620  eV     1   --> A_1  D_1  S_1  
     e(  5 -  5) =    -17.36454  eV     1   --> B_1  D_3  S_3  
     e(  6 -  6) =    -15.37305  eV     1   --> A_1  D_1  S_1  
     e(  7 -  7) =    -14.13091  eV     1   --> B_1  D_3  S_3  
     e(  8 -  8) =    -12.79727  eV     1   --> A_1  D_1  S_1  
     e(  9 -  9) =    -11.44195  eV     1   --> B_1  D_3  S_3  
     e( 10 - 10) =    -10.57776  eV     1   --> A_1  D_1  S_1  
     e( 11 - 11) =     -9.69298  eV     1   --> B_1  D_3  S_3  
     e( 12 - 12) =     -9.50623  eV     1   --> A_1  D_1  S_1  
     e( 13 - 13) =     -9.32414  eV     1   --> A_1  D_1  S_1  
     e( 14 - 14) =     -9.09151  eV     1   --> B_1  D_3  S_3  
     e( 15 - 15) =     -8.97059  eV     1   --> B_1  D_3  S_3  
     e( 16 - 16) =     -8.67041  eV     1   --> B_1  D_3  S_3  
     e( 17 - 17) =     -8.23078  eV     1   --> A_2  D_2  S_2  
     e( 18 - 18) =     -8.10615  eV     1   --> A_1  D_1  S_1  
     e( 19 - 19) =     -8.10231  eV     1   --> B_2  D_4  S_4  
     e( 20 - 20) =     -6.85273  eV     1   --> A_2  D_2  S_2  
     e( 21 - 21) =     -6.48916  eV     1   --> B_2  D_4  S_4  
     e( 22 - 22) =     -5.39253  eV     1   --> A_2  D_2  S_2  
     e( 23 - 23) =     -1.03028  eV     1   --> B_2  D_4  S_4  
     e( 24 - 24) =      0.55281  eV     1   --> A_2  D_2  S_2  
     e( 25 - 25) =      0.82448  eV     1   --> B_2  D_4  S_4  
     e( 26 - 26) =      1.93093  eV     1   --> A_1  D_1  S_1  
     e( 27 - 27) =      2.11155  eV     1   --> B_1  D_3  S_3  
     e( 28 - 28) =      2.23195  eV     1   --> A_1  D_1  S_1  
     e( 29 - 29) =      2.46003  eV     1   --> B_1  D_3  S_3  
     e( 30 - 30) =      2.69450  eV     1   --> B_1  D_3  S_3  
     e( 31 - 31) =      2.72821  eV     1   --> A_1  D_1  S_1  
     e( 32 - 32) =      2.85002  eV     1   --> A_2  D_2  S_2  
     e( 33 - 33) =      2.90613  eV     1   --> B_2  D_4  S_4  
     e( 34 - 34) =      3.15726  eV     1   --> A_1  D_1  S_1  
     e( 35 - 35) =      3.21081  eV     1   --> B_1  D_3  S_3  
     e( 36 - 36) =      3.34392  eV     1   --> A_2  D_2  S_2  
     e( 37 - 37) =      3.47376  eV     1   --> B_2  D_4  S_4  
     e( 38 - 38) =      3.53201  eV     1   --> A_2  D_2  S_2  
     e( 39 - 39) =      3.53367  eV     1   --> A_1  D_1  S_1  
     e( 40 - 40) =      3.54811  eV     1   --> B_1  D_3  S_3  
     e( 41 - 41) =      3.67128  eV     1   --> B_2  D_4  S_4  
     e( 42 - 42) =      3.74644  eV     1   --> A_2  D_2  S_2  
     e( 43 - 43) =      3.75591  eV     1   --> B_2  D_4  S_4  
     e( 44 - 44) =      3.82203  eV     1   --> B_1  D_3  S_3  
     e( 45 - 45) =      3.83787  eV     1   --> A_1  D_1  S_1  
     e( 46 - 46) =      4.03206  eV     1   --> A_1  D_1  S_1  
     e( 47 - 47) =      4.17884  eV     1   --> B_1  D_3  S_3  
     e( 48 - 48) =      4.22352  eV     1   --> B_1  D_3  S_3  
     e( 49 - 49) =      4.34342  eV     1   --> A_1  D_1  S_1  
     e( 50 - 50) =      4.95872  eV     1   --> A_1  D_1  S_1  
     e( 51 - 51) =      4.97134  eV     1   --> B_1  D_3  S_3  
     e( 52 - 52) =      5.00395  eV     1   --> A_2  D_2  S_2  
     e( 53 - 53) =      5.03599  eV     1   --> B_2  D_4  S_4  
     e( 54 - 54) =      5.07698  eV     1   --> B_1  D_3  S_3  
     e( 55 - 55) =      5.20092  eV     1   --> A_1  D_1  S_1  
     e( 56 - 56) =      5.20810  eV     1   --> A_1  D_1  S_1  
     e( 57 - 57) =      5.37283  eV     1   --> A_2  D_2  S_2  
     e( 58 - 58) =      5.38146  eV     1   --> A_2  D_2  S_2  
     e( 59 - 59) =      5.39096  eV     1   --> B_2  D_4  S_4  
     e( 60 - 60) =      5.42824  eV     1   --> B_2  D_4  S_4  

 **************************************************************************
 
     BANDS        :   3m44.17s CPU   4m17.05s WALL

 
   This run was terminated on:  14:16:51   9Feb2022            

=------------------------------------------------------------------------------=
   JOB DONE.
=------------------------------------------------------------------------------=
