
     Program PWSCF v.6.7MaX starts on  9Feb2022 at 13:28:27 

     This program is part of the open-source Quantum ESPRESSO suite
     for quantum simulation of materials; please cite
         "P. Giannozzi et al., J. Phys.:Condens. Matter 21 395502 (2009);
         "P. Giannozzi et al., J. Phys.:Condens. Matter 29 465901 (2017);
          URL http://www.quantum-espresso.org", 
     in publications or presentations arising from this work. More details at
     http://www.quantum-espresso.org/quote

     Parallel version (MPI), running on    30 processors

     MPI processes distributed on     1 nodes
     R & G space division:  proc/nbgrp/npool/nimage =      30
     Waiting for input...
     Reading input from standard input
Warning: card &IONS ignored
Warning: card    !(DEFAULT)  USE BFGS QUASI-NEWTON ALGORITHM ignored
Warning: card / ignored

     Current dimensions of program PWSCF are:
     Max number of different atomic species (ntypx) = 10
     Max number of k-points (npk) =  40000
     Max angular momentum in pseudopotentials (lmaxx) =  3

     Atomic positions and unit cell read from directory:
     ./5AGNR.save/
     Atomic positions from file used, from input discarded
 
     file C.pbe-rrkjus.UPF: wavefunction(s)  2S 2P renormalized
     file H.pbe-rrkjus.UPF: wavefunction(s)  1S renormalized
     Message from routine set_cutoff:
     ecutrho < 4*ecutwfc, are you sure?

     Subspace diagonalization in iterative solution of the eigenvalue problem:
     one sub-group per band group will be used
     scalapack distributed-memory algorithm (size of sub-group:  5*  5 procs)

 
     Parallelization info
     --------------------
     sticks:   dense  smooth     PW     G-vecs:    dense   smooth      PW
     Min         178     178     64                17638    17638    3824
     Max         179     179     65                17643    17643    3831
     Sum        5363    5363   1925               529227   529227  114757
 


     bravais-lattice index     =            8
     lattice parameter (alat)  =       8.1391  a.u.
     unit-cell volume          =    7063.0417 (a.u.)^3
     number of atoms/cell      =           14
     number of atomic types    =            2
     number of electrons       =        44.00
     number of Kohn-Sham states=           60
     kinetic-energy cutoff     =      90.0000  Ry
     charge density cutoff     =     270.0000  Ry
     Exchange-correlation=  SLA  PW   PBE  PBE
                           (   1   4   3   4   0   0   0)

     celldm(1)=   8.139086  celldm(2)=   3.761291  celldm(3)=   3.482795
     celldm(4)=   0.000000  celldm(5)=   0.000000  celldm(6)=   0.000000

     crystal axes: (cart. coord. in units of alat)
               a(1) = (   1.000000   0.000000   0.000000 )  
               a(2) = (   0.000000   3.761291   0.000000 )  
               a(3) = (   0.000000   0.000000   3.482795 )  

     reciprocal axes: (cart. coord. in units 2 pi/alat)
               b(1) = (  1.000000  0.000000  0.000000 )  
               b(2) = (  0.000000  0.265866  0.000000 )  
               b(3) = (  0.000000  0.000000  0.287126 )  


     PseudoPot. # 1 for C  read from file:
     ../Pseudo/C.pbe-rrkjus.UPF
     MD5 check sum: 00fb224312de0c5b6853bd333518df6f
     Pseudo is Ultrasoft, Zval =  4.0
     Generated by new atomic code, or converted to UPF format
     Using radial grid of  627 points,  4 beta functions with: 
                l(1) =   0
                l(2) =   0
                l(3) =   1
                l(4) =   1
     Q(r) pseudized with 0 coefficients 


     PseudoPot. # 2 for H  read from file:
     ../Pseudo/H.pbe-rrkjus.UPF
     MD5 check sum: 7cc9d459525c9a0585f487a71c3c9563
     Pseudo is Ultrasoft, Zval =  1.0
     Generated by new atomic code, or converted to UPF format
     Using radial grid of 1061 points,  2 beta functions with: 
                l(1) =   0
                l(2) =   0
     Q(r) pseudized with 0 coefficients 


     atomic species   valence    mass     pseudopotential
        C              4.00    12.01070     C ( 1.00)
        H              1.00     1.00794     H ( 1.00)

      4 Sym. Ops. (no inversion) found


                                    s                        frac. trans.

      isym =  1     identity                                     

 cryst.   s( 1) = (     1          0          0      )
                  (     0          1          0      )
                  (     0          0          1      )

 cart.    s( 1) = (  1.0000000  0.0000000  0.0000000 )
                  (  0.0000000  1.0000000  0.0000000 )
                  (  0.0000000  0.0000000  1.0000000 )


      isym =  2     180 deg rotation - cart. axis [0,1,0]        

 cryst.   s( 2) = (    -1          0          0      )
                  (     0          1          0      )
                  (     0          0         -1      )

 cart.    s( 2) = ( -1.0000000  0.0000000  0.0000000 )
                  (  0.0000000  1.0000000  0.0000000 )
                  (  0.0000000  0.0000000 -1.0000000 )


      isym =  3     inv. 180 deg rotation - cart. axis [0,0,1]   

 cryst.   s( 3) = (     1          0          0      )
                  (     0          1          0      )
                  (     0          0         -1      )

 cart.    s( 3) = (  1.0000000  0.0000000  0.0000000 )
                  (  0.0000000  1.0000000  0.0000000 )
                  (  0.0000000  0.0000000 -1.0000000 )


      isym =  4     inv. 180 deg rotation - cart. axis [1,0,0]   

 cryst.   s( 4) = (    -1          0          0      )
                  (     0          1          0      )
                  (     0          0          1      )

 cart.    s( 4) = ( -1.0000000  0.0000000  0.0000000 )
                  (  0.0000000  1.0000000  0.0000000 )
                  (  0.0000000  0.0000000  1.0000000 )


     point group C_2v (mm2) 
     there are  4 classes
     the character table:

       E     C2    s_v   s_v' 
A_1    1.00  1.00  1.00  1.00
A_2    1.00  1.00 -1.00 -1.00
B_1    1.00 -1.00  1.00 -1.00
B_2    1.00 -1.00 -1.00  1.00

     the symmetry operations in each class and the name of the first element:

     E        1
          identity                                               
     C2       2
          180 deg rotation - cart. axis [0,1,0]                  
     s_v      3
          inv. 180 deg rotation - cart. axis [0,0,1]             
     s_v'     4
          inv. 180 deg rotation - cart. axis [1,0,0]             

   Cartesian axes

     site n.     atom                  positions (alat units)
         1           C   tau(   1) = (   0.6589723   1.1723387   1.7413977  )
         2           C   tau(   2) = (   0.8334727   1.4511874   1.7413977  )
         3           C   tau(   3) = (   0.3410277   1.1723387   1.7413977  )
         4           C   tau(   4) = (   0.6668963   1.7373978   1.7413977  )
         5           C   tau(   5) = (   0.8334668   2.0235924   1.7413977  )
         6           C   tau(   6) = (   0.1665273   1.4511874   1.7413977  )
         7           C   tau(   7) = (   0.3331037   1.7373978   1.7413977  )
         8           C   tau(   8) = (   0.6589810   2.3024442   1.7413977  )
         9           C   tau(   9) = (   0.1665332   2.0235924   1.7413977  )
        10           C   tau(  10) = (   0.3410190   2.3024442   1.7413977  )
        11           H   tau(  11) = (   0.7778941   0.9496575   1.7413977  )
        12           H   tau(  12) = (   0.2221059   0.9496575   1.7413977  )
        13           H   tau(  13) = (   0.7779967   2.5250248   1.7413977  )
        14           H   tau(  14) = (   0.2220033   2.5250248   1.7413977  )

   Crystallographic axes

     site n.     atom                  positions (cryst. coord.)
         1           C   tau(   1) = (  0.6589723  0.3116852  0.5000000  )
         2           C   tau(   2) = (  0.8334727  0.3858216  0.5000000  )
         3           C   tau(   3) = (  0.3410277  0.3116852  0.5000000  )
         4           C   tau(   4) = (  0.6668963  0.4619153  0.5000000  )
         5           C   tau(   5) = (  0.8334668  0.5380047  0.5000000  )
         6           C   tau(   6) = (  0.1665273  0.3858216  0.5000000  )
         7           C   tau(   7) = (  0.3331037  0.4619153  0.5000000  )
         8           C   tau(   8) = (  0.6589810  0.6121420  0.5000000  )
         9           C   tau(   9) = (  0.1665332  0.5380047  0.5000000  )
        10           C   tau(  10) = (  0.3410190  0.6121420  0.5000000  )
        11           H   tau(  11) = (  0.7778941  0.2524818  0.5000000  )
        12           H   tau(  12) = (  0.2221059  0.2524818  0.5000000  )
        13           H   tau(  13) = (  0.7779967  0.6713187  0.5000000  )
        14           H   tau(  14) = (  0.2220033  0.6713187  0.5000000  )

     number of k points=   101
                       cart. coord. in units 2pi/alat
        k(    1) = (   0.0000000   0.0000000   0.0000000), wk =   0.0198020
        k(    2) = (   0.0050000   0.0000000   0.0000000), wk =   0.0198020
        k(    3) = (   0.0100000   0.0000000   0.0000000), wk =   0.0198020
        k(    4) = (   0.0150000   0.0000000   0.0000000), wk =   0.0198020
        k(    5) = (   0.0200000   0.0000000   0.0000000), wk =   0.0198020
        k(    6) = (   0.0250000   0.0000000   0.0000000), wk =   0.0198020
        k(    7) = (   0.0300000   0.0000000   0.0000000), wk =   0.0198020
        k(    8) = (   0.0350000   0.0000000   0.0000000), wk =   0.0198020
        k(    9) = (   0.0400000   0.0000000   0.0000000), wk =   0.0198020
        k(   10) = (   0.0450000   0.0000000   0.0000000), wk =   0.0198020
        k(   11) = (   0.0500000   0.0000000   0.0000000), wk =   0.0198020
        k(   12) = (   0.0550000   0.0000000   0.0000000), wk =   0.0198020
        k(   13) = (   0.0600000   0.0000000   0.0000000), wk =   0.0198020
        k(   14) = (   0.0650000   0.0000000   0.0000000), wk =   0.0198020
        k(   15) = (   0.0700000   0.0000000   0.0000000), wk =   0.0198020
        k(   16) = (   0.0750000   0.0000000   0.0000000), wk =   0.0198020
        k(   17) = (   0.0800000   0.0000000   0.0000000), wk =   0.0198020
        k(   18) = (   0.0850000   0.0000000   0.0000000), wk =   0.0198020
        k(   19) = (   0.0900000   0.0000000   0.0000000), wk =   0.0198020
        k(   20) = (   0.0950000   0.0000000   0.0000000), wk =   0.0198020
        k(   21) = (   0.1000000   0.0000000   0.0000000), wk =   0.0198020
        k(   22) = (   0.1050000   0.0000000   0.0000000), wk =   0.0198020
        k(   23) = (   0.1100000   0.0000000   0.0000000), wk =   0.0198020
        k(   24) = (   0.1150000   0.0000000   0.0000000), wk =   0.0198020
        k(   25) = (   0.1200000   0.0000000   0.0000000), wk =   0.0198020
        k(   26) = (   0.1250000   0.0000000   0.0000000), wk =   0.0198020
        k(   27) = (   0.1300000   0.0000000   0.0000000), wk =   0.0198020
        k(   28) = (   0.1350000   0.0000000   0.0000000), wk =   0.0198020
        k(   29) = (   0.1400000   0.0000000   0.0000000), wk =   0.0198020
        k(   30) = (   0.1450000   0.0000000   0.0000000), wk =   0.0198020
        k(   31) = (   0.1500000   0.0000000   0.0000000), wk =   0.0198020
        k(   32) = (   0.1550000   0.0000000   0.0000000), wk =   0.0198020
        k(   33) = (   0.1600000   0.0000000   0.0000000), wk =   0.0198020
        k(   34) = (   0.1650000   0.0000000   0.0000000), wk =   0.0198020
        k(   35) = (   0.1700000   0.0000000   0.0000000), wk =   0.0198020
        k(   36) = (   0.1750000   0.0000000   0.0000000), wk =   0.0198020
        k(   37) = (   0.1800000   0.0000000   0.0000000), wk =   0.0198020
        k(   38) = (   0.1850000   0.0000000   0.0000000), wk =   0.0198020
        k(   39) = (   0.1900000   0.0000000   0.0000000), wk =   0.0198020
        k(   40) = (   0.1950000   0.0000000   0.0000000), wk =   0.0198020
        k(   41) = (   0.2000000   0.0000000   0.0000000), wk =   0.0198020
        k(   42) = (   0.2050000   0.0000000   0.0000000), wk =   0.0198020
        k(   43) = (   0.2100000   0.0000000   0.0000000), wk =   0.0198020
        k(   44) = (   0.2150000   0.0000000   0.0000000), wk =   0.0198020
        k(   45) = (   0.2200000   0.0000000   0.0000000), wk =   0.0198020
        k(   46) = (   0.2250000   0.0000000   0.0000000), wk =   0.0198020
        k(   47) = (   0.2300000   0.0000000   0.0000000), wk =   0.0198020
        k(   48) = (   0.2350000   0.0000000   0.0000000), wk =   0.0198020
        k(   49) = (   0.2400000   0.0000000   0.0000000), wk =   0.0198020
        k(   50) = (   0.2450000   0.0000000   0.0000000), wk =   0.0198020
        k(   51) = (   0.2500000   0.0000000   0.0000000), wk =   0.0198020
        k(   52) = (   0.2550000   0.0000000   0.0000000), wk =   0.0198020
        k(   53) = (   0.2600000   0.0000000   0.0000000), wk =   0.0198020
        k(   54) = (   0.2650000   0.0000000   0.0000000), wk =   0.0198020
        k(   55) = (   0.2700000   0.0000000   0.0000000), wk =   0.0198020
        k(   56) = (   0.2750000   0.0000000   0.0000000), wk =   0.0198020
        k(   57) = (   0.2800000   0.0000000   0.0000000), wk =   0.0198020
        k(   58) = (   0.2850000   0.0000000   0.0000000), wk =   0.0198020
        k(   59) = (   0.2900000   0.0000000   0.0000000), wk =   0.0198020
        k(   60) = (   0.2950000   0.0000000   0.0000000), wk =   0.0198020
        k(   61) = (   0.3000000   0.0000000   0.0000000), wk =   0.0198020
        k(   62) = (   0.3050000   0.0000000   0.0000000), wk =   0.0198020
        k(   63) = (   0.3100000   0.0000000   0.0000000), wk =   0.0198020
        k(   64) = (   0.3150000   0.0000000   0.0000000), wk =   0.0198020
        k(   65) = (   0.3200000   0.0000000   0.0000000), wk =   0.0198020
        k(   66) = (   0.3250000   0.0000000   0.0000000), wk =   0.0198020
        k(   67) = (   0.3300000   0.0000000   0.0000000), wk =   0.0198020
        k(   68) = (   0.3350000   0.0000000   0.0000000), wk =   0.0198020
        k(   69) = (   0.3400000   0.0000000   0.0000000), wk =   0.0198020
        k(   70) = (   0.3450000   0.0000000   0.0000000), wk =   0.0198020
        k(   71) = (   0.3500000   0.0000000   0.0000000), wk =   0.0198020
        k(   72) = (   0.3550000   0.0000000   0.0000000), wk =   0.0198020
        k(   73) = (   0.3600000   0.0000000   0.0000000), wk =   0.0198020
        k(   74) = (   0.3650000   0.0000000   0.0000000), wk =   0.0198020
        k(   75) = (   0.3700000   0.0000000   0.0000000), wk =   0.0198020
        k(   76) = (   0.3750000   0.0000000   0.0000000), wk =   0.0198020
        k(   77) = (   0.3800000   0.0000000   0.0000000), wk =   0.0198020
        k(   78) = (   0.3850000   0.0000000   0.0000000), wk =   0.0198020
        k(   79) = (   0.3900000   0.0000000   0.0000000), wk =   0.0198020
        k(   80) = (   0.3950000   0.0000000   0.0000000), wk =   0.0198020
        k(   81) = (   0.4000000   0.0000000   0.0000000), wk =   0.0198020
        k(   82) = (   0.4050000   0.0000000   0.0000000), wk =   0.0198020
        k(   83) = (   0.4100000   0.0000000   0.0000000), wk =   0.0198020
        k(   84) = (   0.4150000   0.0000000   0.0000000), wk =   0.0198020
        k(   85) = (   0.4200000   0.0000000   0.0000000), wk =   0.0198020
        k(   86) = (   0.4250000   0.0000000   0.0000000), wk =   0.0198020
        k(   87) = (   0.4300000   0.0000000   0.0000000), wk =   0.0198020
        k(   88) = (   0.4350000   0.0000000   0.0000000), wk =   0.0198020
        k(   89) = (   0.4400000   0.0000000   0.0000000), wk =   0.0198020
        k(   90) = (   0.4450000   0.0000000   0.0000000), wk =   0.0198020
        k(   91) = (   0.4500000   0.0000000   0.0000000), wk =   0.0198020
        k(   92) = (   0.4550000   0.0000000   0.0000000), wk =   0.0198020
        k(   93) = (   0.4600000   0.0000000   0.0000000), wk =   0.0198020
        k(   94) = (   0.4650000   0.0000000   0.0000000), wk =   0.0198020
        k(   95) = (   0.4700000   0.0000000   0.0000000), wk =   0.0198020
        k(   96) = (   0.4750000   0.0000000   0.0000000), wk =   0.0198020
        k(   97) = (   0.4800000   0.0000000   0.0000000), wk =   0.0198020
        k(   98) = (   0.4850000   0.0000000   0.0000000), wk =   0.0198020
        k(   99) = (   0.4900000   0.0000000   0.0000000), wk =   0.0198020
        k(  100) = (   0.4950000   0.0000000   0.0000000), wk =   0.0198020
        k(  101) = (   0.5000000   0.0000000   0.0000000), wk =   0.0198020

                       cryst. coord.
        k(    1) = (   0.0000000   0.0000000   0.0000000), wk =   0.0198020
        k(    2) = (   0.0050000   0.0000000   0.0000000), wk =   0.0198020
        k(    3) = (   0.0100000   0.0000000   0.0000000), wk =   0.0198020
        k(    4) = (   0.0150000   0.0000000   0.0000000), wk =   0.0198020
        k(    5) = (   0.0200000   0.0000000   0.0000000), wk =   0.0198020
        k(    6) = (   0.0250000   0.0000000   0.0000000), wk =   0.0198020
        k(    7) = (   0.0300000   0.0000000   0.0000000), wk =   0.0198020
        k(    8) = (   0.0350000   0.0000000   0.0000000), wk =   0.0198020
        k(    9) = (   0.0400000   0.0000000   0.0000000), wk =   0.0198020
        k(   10) = (   0.0450000   0.0000000   0.0000000), wk =   0.0198020
        k(   11) = (   0.0500000   0.0000000   0.0000000), wk =   0.0198020
        k(   12) = (   0.0550000   0.0000000   0.0000000), wk =   0.0198020
        k(   13) = (   0.0600000   0.0000000   0.0000000), wk =   0.0198020
        k(   14) = (   0.0650000   0.0000000   0.0000000), wk =   0.0198020
        k(   15) = (   0.0700000   0.0000000   0.0000000), wk =   0.0198020
        k(   16) = (   0.0750000   0.0000000   0.0000000), wk =   0.0198020
        k(   17) = (   0.0800000   0.0000000   0.0000000), wk =   0.0198020
        k(   18) = (   0.0850000   0.0000000   0.0000000), wk =   0.0198020
        k(   19) = (   0.0900000   0.0000000   0.0000000), wk =   0.0198020
        k(   20) = (   0.0950000   0.0000000   0.0000000), wk =   0.0198020
        k(   21) = (   0.1000000   0.0000000   0.0000000), wk =   0.0198020
        k(   22) = (   0.1050000   0.0000000   0.0000000), wk =   0.0198020
        k(   23) = (   0.1100000   0.0000000   0.0000000), wk =   0.0198020
        k(   24) = (   0.1150000   0.0000000   0.0000000), wk =   0.0198020
        k(   25) = (   0.1200000   0.0000000   0.0000000), wk =   0.0198020
        k(   26) = (   0.1250000   0.0000000   0.0000000), wk =   0.0198020
        k(   27) = (   0.1300000   0.0000000   0.0000000), wk =   0.0198020
        k(   28) = (   0.1350000   0.0000000   0.0000000), wk =   0.0198020
        k(   29) = (   0.1400000   0.0000000   0.0000000), wk =   0.0198020
        k(   30) = (   0.1450000   0.0000000   0.0000000), wk =   0.0198020
        k(   31) = (   0.1500000   0.0000000   0.0000000), wk =   0.0198020
        k(   32) = (   0.1550000   0.0000000   0.0000000), wk =   0.0198020
        k(   33) = (   0.1600000   0.0000000   0.0000000), wk =   0.0198020
        k(   34) = (   0.1650000   0.0000000   0.0000000), wk =   0.0198020
        k(   35) = (   0.1700000   0.0000000   0.0000000), wk =   0.0198020
        k(   36) = (   0.1750000   0.0000000   0.0000000), wk =   0.0198020
        k(   37) = (   0.1800000   0.0000000   0.0000000), wk =   0.0198020
        k(   38) = (   0.1850000   0.0000000   0.0000000), wk =   0.0198020
        k(   39) = (   0.1900000   0.0000000   0.0000000), wk =   0.0198020
        k(   40) = (   0.1950000   0.0000000   0.0000000), wk =   0.0198020
        k(   41) = (   0.2000000   0.0000000   0.0000000), wk =   0.0198020
        k(   42) = (   0.2050000   0.0000000   0.0000000), wk =   0.0198020
        k(   43) = (   0.2100000   0.0000000   0.0000000), wk =   0.0198020
        k(   44) = (   0.2150000   0.0000000   0.0000000), wk =   0.0198020
        k(   45) = (   0.2200000   0.0000000   0.0000000), wk =   0.0198020
        k(   46) = (   0.2250000   0.0000000   0.0000000), wk =   0.0198020
        k(   47) = (   0.2300000   0.0000000   0.0000000), wk =   0.0198020
        k(   48) = (   0.2350000   0.0000000   0.0000000), wk =   0.0198020
        k(   49) = (   0.2400000   0.0000000   0.0000000), wk =   0.0198020
        k(   50) = (   0.2450000   0.0000000   0.0000000), wk =   0.0198020
        k(   51) = (   0.2500000   0.0000000   0.0000000), wk =   0.0198020
        k(   52) = (   0.2550000   0.0000000   0.0000000), wk =   0.0198020
        k(   53) = (   0.2600000   0.0000000   0.0000000), wk =   0.0198020
        k(   54) = (   0.2650000   0.0000000   0.0000000), wk =   0.0198020
        k(   55) = (   0.2700000   0.0000000   0.0000000), wk =   0.0198020
        k(   56) = (   0.2750000   0.0000000   0.0000000), wk =   0.0198020
        k(   57) = (   0.2800000   0.0000000   0.0000000), wk =   0.0198020
        k(   58) = (   0.2850000   0.0000000   0.0000000), wk =   0.0198020
        k(   59) = (   0.2900000   0.0000000   0.0000000), wk =   0.0198020
        k(   60) = (   0.2950000   0.0000000   0.0000000), wk =   0.0198020
        k(   61) = (   0.3000000   0.0000000   0.0000000), wk =   0.0198020
        k(   62) = (   0.3050000   0.0000000   0.0000000), wk =   0.0198020
        k(   63) = (   0.3100000   0.0000000   0.0000000), wk =   0.0198020
        k(   64) = (   0.3150000   0.0000000   0.0000000), wk =   0.0198020
        k(   65) = (   0.3200000   0.0000000   0.0000000), wk =   0.0198020
        k(   66) = (   0.3250000   0.0000000   0.0000000), wk =   0.0198020
        k(   67) = (   0.3300000   0.0000000   0.0000000), wk =   0.0198020
        k(   68) = (   0.3350000   0.0000000   0.0000000), wk =   0.0198020
        k(   69) = (   0.3400000   0.0000000   0.0000000), wk =   0.0198020
        k(   70) = (   0.3450000   0.0000000   0.0000000), wk =   0.0198020
        k(   71) = (   0.3500000   0.0000000   0.0000000), wk =   0.0198020
        k(   72) = (   0.3550000   0.0000000   0.0000000), wk =   0.0198020
        k(   73) = (   0.3600000   0.0000000   0.0000000), wk =   0.0198020
        k(   74) = (   0.3650000   0.0000000   0.0000000), wk =   0.0198020
        k(   75) = (   0.3700000   0.0000000   0.0000000), wk =   0.0198020
        k(   76) = (   0.3750000   0.0000000   0.0000000), wk =   0.0198020
        k(   77) = (   0.3800000   0.0000000   0.0000000), wk =   0.0198020
        k(   78) = (   0.3850000   0.0000000   0.0000000), wk =   0.0198020
        k(   79) = (   0.3900000   0.0000000   0.0000000), wk =   0.0198020
        k(   80) = (   0.3950000   0.0000000   0.0000000), wk =   0.0198020
        k(   81) = (   0.4000000   0.0000000   0.0000000), wk =   0.0198020
        k(   82) = (   0.4050000   0.0000000   0.0000000), wk =   0.0198020
        k(   83) = (   0.4100000   0.0000000   0.0000000), wk =   0.0198020
        k(   84) = (   0.4150000   0.0000000   0.0000000), wk =   0.0198020
        k(   85) = (   0.4200000   0.0000000   0.0000000), wk =   0.0198020
        k(   86) = (   0.4250000   0.0000000   0.0000000), wk =   0.0198020
        k(   87) = (   0.4300000   0.0000000   0.0000000), wk =   0.0198020
        k(   88) = (   0.4350000   0.0000000   0.0000000), wk =   0.0198020
        k(   89) = (   0.4400000   0.0000000   0.0000000), wk =   0.0198020
        k(   90) = (   0.4450000   0.0000000   0.0000000), wk =   0.0198020
        k(   91) = (   0.4500000   0.0000000   0.0000000), wk =   0.0198020
        k(   92) = (   0.4550000   0.0000000   0.0000000), wk =   0.0198020
        k(   93) = (   0.4600000   0.0000000   0.0000000), wk =   0.0198020
        k(   94) = (   0.4650000   0.0000000   0.0000000), wk =   0.0198020
        k(   95) = (   0.4700000   0.0000000   0.0000000), wk =   0.0198020
        k(   96) = (   0.4750000   0.0000000   0.0000000), wk =   0.0198020
        k(   97) = (   0.4800000   0.0000000   0.0000000), wk =   0.0198020
        k(   98) = (   0.4850000   0.0000000   0.0000000), wk =   0.0198020
        k(   99) = (   0.4900000   0.0000000   0.0000000), wk =   0.0198020
        k(  100) = (   0.4950000   0.0000000   0.0000000), wk =   0.0198020
        k(  101) = (   0.5000000   0.0000000   0.0000000), wk =   0.0198020

     Dense  grid:   529227 G-vectors     FFT dimensions: (  45, 162, 150)

     Dynamical RAM for                 wfc:       3.11 MB

     Dynamical RAM for     wfc (w. buffer):     316.94 MB

     Dynamical RAM for           str. fact:       0.54 MB

     Dynamical RAM for           local pot:       0.00 MB

     Dynamical RAM for          nlocal pot:       4.56 MB

     Dynamical RAM for                qrad:       0.75 MB

     Dynamical RAM for          rho,v,vnew:       1.64 MB

     Dynamical RAM for           G-vectors:       1.14 MB

     Dynamical RAM for          h,s,v(r/c):       0.03 MB

     Dynamical RAM for          <psi|beta>:       0.08 MB

     Dynamical RAM for                 psi:       6.21 MB

     Dynamical RAM for                hpsi:       6.21 MB

     Dynamical RAM for                spsi:       6.21 MB

     Dynamical RAM for      wfcinit/wfcrot:       6.30 MB

     Dynamical RAM for           addusdens:      14.27 MB

     Estimated static dynamical RAM per process >     327.78 MB

     Estimated max dynamical RAM per process >     346.53 MB

     Estimated total dynamical RAM >      10.15 GB

     The potential is recalculated from file :
     ./5AGNR.save/charge-density


     negative rho (up, down):  5.115E-04 0.000E+00
     Starting wfcs are   44 randomized atomic wfcs +   16 random wfcs

     Band Structure Calculation
     Davidson diagonalization with overlap

     Computing kpt #:     1  of   101
     total cpu time spent up to now is       30.8 secs

     Computing kpt #:     2  of   101
     total cpu time spent up to now is       63.5 secs

     Computing kpt #:     3  of   101
     total cpu time spent up to now is       92.1 secs

     Computing kpt #:     4  of   101
     total cpu time spent up to now is      123.4 secs

     Computing kpt #:     5  of   101
     total cpu time spent up to now is      154.3 secs

     Computing kpt #:     6  of   101
     c_bands:  1 eigenvalues not converged
     total cpu time spent up to now is      187.9 secs

     Computing kpt #:     7  of   101
     total cpu time spent up to now is      221.3 secs

     Computing kpt #:     8  of   101
     c_bands:  1 eigenvalues not converged
     total cpu time spent up to now is      254.7 secs

     Computing kpt #:     9  of   101
     c_bands:  1 eigenvalues not converged
     total cpu time spent up to now is      283.9 secs

     Computing kpt #:    10  of   101
     c_bands:  1 eigenvalues not converged
     total cpu time spent up to now is      311.6 secs

     Computing kpt #:    11  of   101
     total cpu time spent up to now is      333.2 secs

     Computing kpt #:    12  of   101
     total cpu time spent up to now is      353.1 secs

     Computing kpt #:    13  of   101
     total cpu time spent up to now is      372.4 secs

     Computing kpt #:    14  of   101
     total cpu time spent up to now is      392.1 secs

     Computing kpt #:    15  of   101
     total cpu time spent up to now is      411.3 secs

     Computing kpt #:    16  of   101
     total cpu time spent up to now is      430.8 secs

     Computing kpt #:    17  of   101
     total cpu time spent up to now is      450.4 secs

     Computing kpt #:    18  of   101
     total cpu time spent up to now is      469.9 secs

     Computing kpt #:    19  of   101
     total cpu time spent up to now is      488.9 secs

     Computing kpt #:    20  of   101
     total cpu time spent up to now is      508.7 secs

     Computing kpt #:    21  of   101
     total cpu time spent up to now is      528.5 secs

     Computing kpt #:    22  of   101
     total cpu time spent up to now is      549.8 secs

     Computing kpt #:    23  of   101
     total cpu time spent up to now is      570.5 secs

     Computing kpt #:    24  of   101
     total cpu time spent up to now is      593.1 secs

     Computing kpt #:    25  of   101
     total cpu time spent up to now is      616.7 secs

     Computing kpt #:    26  of   101
     total cpu time spent up to now is      642.8 secs

     Computing kpt #:    27  of   101
     total cpu time spent up to now is      669.0 secs

     Computing kpt #:    28  of   101
     total cpu time spent up to now is      695.1 secs

     Computing kpt #:    29  of   101
     total cpu time spent up to now is      721.4 secs

     Computing kpt #:    30  of   101
     total cpu time spent up to now is      747.5 secs

     Computing kpt #:    31  of   101
     total cpu time spent up to now is      773.5 secs

     Computing kpt #:    32  of   101
     total cpu time spent up to now is      799.4 secs

     Computing kpt #:    33  of   101
     total cpu time spent up to now is      823.4 secs

     Computing kpt #:    34  of   101
     total cpu time spent up to now is      846.3 secs

     Computing kpt #:    35  of   101
     total cpu time spent up to now is      870.3 secs

     Computing kpt #:    36  of   101
     total cpu time spent up to now is      894.0 secs

     Computing kpt #:    37  of   101
     total cpu time spent up to now is      917.3 secs

     Computing kpt #:    38  of   101
     total cpu time spent up to now is      941.4 secs

     Computing kpt #:    39  of   101
     total cpu time spent up to now is      964.5 secs

     Computing kpt #:    40  of   101
     total cpu time spent up to now is      989.4 secs

     Computing kpt #:    41  of   101
     total cpu time spent up to now is     1013.5 secs

     Computing kpt #:    42  of   101
     total cpu time spent up to now is     1039.8 secs

     Computing kpt #:    43  of   101
     total cpu time spent up to now is     1065.9 secs

     Computing kpt #:    44  of   101
     total cpu time spent up to now is     1092.1 secs

     Computing kpt #:    45  of   101
     total cpu time spent up to now is     1119.0 secs

     Computing kpt #:    46  of   101
     c_bands:  1 eigenvalues not converged
     total cpu time spent up to now is     1147.8 secs

     Computing kpt #:    47  of   101
     total cpu time spent up to now is     1175.7 secs

     Computing kpt #:    48  of   101
     total cpu time spent up to now is     1203.7 secs

     Computing kpt #:    49  of   101
     total cpu time spent up to now is     1231.9 secs

     Computing kpt #:    50  of   101
     total cpu time spent up to now is     1259.1 secs

     Computing kpt #:    51  of   101
     c_bands:  1 eigenvalues not converged
     total cpu time spent up to now is     1288.6 secs

     Computing kpt #:    52  of   101
     total cpu time spent up to now is     1316.2 secs

     Computing kpt #:    53  of   101
     total cpu time spent up to now is     1343.0 secs

     Computing kpt #:    54  of   101
     total cpu time spent up to now is     1368.7 secs

     Computing kpt #:    55  of   101
     total cpu time spent up to now is     1393.7 secs

     Computing kpt #:    56  of   101
     total cpu time spent up to now is     1419.0 secs

     Computing kpt #:    57  of   101
     total cpu time spent up to now is     1441.7 secs

     Computing kpt #:    58  of   101
     total cpu time spent up to now is     1465.6 secs

     Computing kpt #:    59  of   101
     total cpu time spent up to now is     1491.3 secs

     Computing kpt #:    60  of   101
     total cpu time spent up to now is     1515.3 secs

     Computing kpt #:    61  of   101
     total cpu time spent up to now is     1538.4 secs

     Computing kpt #:    62  of   101
     total cpu time spent up to now is     1561.9 secs

     Computing kpt #:    63  of   101
     total cpu time spent up to now is     1584.6 secs

     Computing kpt #:    64  of   101
     total cpu time spent up to now is     1606.5 secs

     Computing kpt #:    65  of   101
     total cpu time spent up to now is     1628.6 secs

     Computing kpt #:    66  of   101
     total cpu time spent up to now is     1651.5 secs

     Computing kpt #:    67  of   101
     total cpu time spent up to now is     1674.6 secs

     Computing kpt #:    68  of   101
     total cpu time spent up to now is     1698.8 secs

     Computing kpt #:    69  of   101
     total cpu time spent up to now is     1722.3 secs

     Computing kpt #:    70  of   101
     total cpu time spent up to now is     1745.9 secs

     Computing kpt #:    71  of   101
     total cpu time spent up to now is     1769.7 secs

     Computing kpt #:    72  of   101
     total cpu time spent up to now is     1792.8 secs

     Computing kpt #:    73  of   101
     c_bands:  1 eigenvalues not converged
     total cpu time spent up to now is     1818.8 secs

     Computing kpt #:    74  of   101
     total cpu time spent up to now is     1843.3 secs

     Computing kpt #:    75  of   101
     total cpu time spent up to now is     1867.6 secs

     Computing kpt #:    76  of   101
     total cpu time spent up to now is     1891.2 secs

     Computing kpt #:    77  of   101
     total cpu time spent up to now is     1915.1 secs

     Computing kpt #:    78  of   101
     total cpu time spent up to now is     1939.5 secs

     Computing kpt #:    79  of   101
     total cpu time spent up to now is     1964.1 secs

     Computing kpt #:    80  of   101
     total cpu time spent up to now is     1989.2 secs

     Computing kpt #:    81  of   101
     total cpu time spent up to now is     2012.9 secs

     Computing kpt #:    82  of   101
     total cpu time spent up to now is     2036.3 secs

     Computing kpt #:    83  of   101
     total cpu time spent up to now is     2059.8 secs

     Computing kpt #:    84  of   101
     total cpu time spent up to now is     2083.3 secs

     Computing kpt #:    85  of   101
     total cpu time spent up to now is     2107.3 secs

     Computing kpt #:    86  of   101
     total cpu time spent up to now is     2132.0 secs

     Computing kpt #:    87  of   101
     total cpu time spent up to now is     2158.5 secs

     Computing kpt #:    88  of   101
     total cpu time spent up to now is     2183.5 secs

     Computing kpt #:    89  of   101
     total cpu time spent up to now is     2207.2 secs

     Computing kpt #:    90  of   101
     total cpu time spent up to now is     2231.3 secs

     Computing kpt #:    91  of   101
     total cpu time spent up to now is     2255.2 secs

     Computing kpt #:    92  of   101
     total cpu time spent up to now is     2280.5 secs

     Computing kpt #:    93  of   101
     total cpu time spent up to now is     2303.1 secs

     Computing kpt #:    94  of   101
     total cpu time spent up to now is     2327.5 secs

     Computing kpt #:    95  of   101
     total cpu time spent up to now is     2350.0 secs

     Computing kpt #:    96  of   101
     total cpu time spent up to now is     2375.3 secs

     Computing kpt #:    97  of   101
     total cpu time spent up to now is     2399.9 secs

     Computing kpt #:    98  of   101
     total cpu time spent up to now is     2426.5 secs

     Computing kpt #:    99  of   101
     c_bands:  2 eigenvalues not converged
     total cpu time spent up to now is     2453.7 secs

     Computing kpt #:   100  of   101
     c_bands:  1 eigenvalues not converged
     total cpu time spent up to now is     2480.8 secs

     Computing kpt #:   101  of   101
     c_bands:  1 eigenvalues not converged
     total cpu time spent up to now is     2508.1 secs

     ethr =  2.27E-11,  avg # of iterations = 85.9

     total cpu time spent up to now is     2508.1 secs

     End of band structure calculation

          k = 0.0000 0.0000 0.0000 (101825 PWs)   bands (ev):

   -21.7661 -20.2766 -18.0432 -16.7149 -15.8737 -15.6488 -15.3180 -13.1208
   -12.9344 -12.1620 -10.9231 -10.5891 -10.0233  -9.8426  -8.7228  -8.2123
    -8.0617  -6.8366  -6.3238  -5.7469  -4.6310  -3.1427  -2.7377  -1.5373
     0.1196   0.1645   0.4574   0.7318   1.0420   1.1921   1.4730   1.5392
     1.7443   1.8402   2.1788   2.3059   2.8221   2.9848   3.2327   3.3318
     3.3961   3.4246   3.5092   3.6052   3.7920   3.8849   4.3008   4.5271
     4.6191   4.7363   5.0193   5.3596   5.4389   5.6813   5.7755   5.7939
     6.0679   6.0921   6.1801   6.3776

     occupation numbers 
     1.0000   1.0000   1.0000   1.0000   1.0000   1.0000   1.0000   1.0000
     1.0000   1.0000   1.0000   1.0000   1.0000   1.0000   1.0000   1.0000
     1.0000   1.0000   1.0000   1.0000   1.0000   1.0000   0.0000   0.0000
     0.0000   0.0000   0.0000   0.0000   0.0000   0.0000   0.0000   0.0000
     0.0000   0.0000   0.0000   0.0000   0.0000   0.0000   0.0000   0.0000
     0.0000   0.0000   0.0000   0.0000   0.0000   0.0000   0.0000   0.0000
     0.0000   0.0000   0.0000   0.0000   0.0000   0.0000   0.0000   0.0000
     0.0000   0.0000   0.0000   0.0000

          k = 0.0050 0.0000 0.0000 (101833 PWs)   bands (ev):

   -21.7659 -20.2765 -18.0431 -16.7173 -15.8751 -15.6462 -15.3170 -13.1220
   -12.9337 -12.1611 -10.9226 -10.5901 -10.0227  -9.8425  -8.7224  -8.2121
    -8.0622  -6.8367  -6.3241  -5.7469  -4.6321  -3.1465  -2.7340  -1.5361
     0.1198   0.1642   0.4576   0.7320   1.0422   1.1923   1.4733   1.5394
     1.7445   1.8404   2.1790   2.3061   2.8223   2.9850   3.2329   3.3320
     3.3963   3.4247   3.5094   3.6048   3.7922   3.8851   4.3010   4.5273
     4.6192   4.7363   5.0195   5.3599   5.4391   5.6815   5.7756   5.7941
     6.0673   6.0923   6.1802   6.3778

     occupation numbers 
     1.0000   1.0000   1.0000   1.0000   1.0000   1.0000   1.0000   1.0000
     1.0000   1.0000   1.0000   1.0000   1.0000   1.0000   1.0000   1.0000
     1.0000   1.0000   1.0000   1.0000   1.0000   1.0000   0.0000   0.0000
     0.0000   0.0000   0.0000   0.0000   0.0000   0.0000   0.0000   0.0000
     0.0000   0.0000   0.0000   0.0000   0.0000   0.0000   0.0000   0.0000
     0.0000   0.0000   0.0000   0.0000   0.0000   0.0000   0.0000   0.0000
     0.0000   0.0000   0.0000   0.0000   0.0000   0.0000   0.0000   0.0000
     0.0000   0.0000   0.0000   0.0000

          k = 0.0100 0.0000 0.0000 (101821 PWs)   bands (ev):

   -21.7655 -20.2761 -18.0429 -16.7243 -15.8795 -15.6386 -15.3143 -13.1257
   -12.9313 -12.1585 -10.9209 -10.5932 -10.0209  -9.8419  -8.7214  -8.2116
    -8.0637  -6.8372  -6.3251  -5.7467  -4.6354  -3.1574  -2.7233  -1.5324
     0.1204   0.1631   0.4582   0.7326   1.0429   1.1929   1.4739   1.5400
     1.7451   1.8410   2.1795   2.3067   2.8231   2.9856   3.2335   3.3326
     3.3969   3.4248   3.5100   3.6039   3.7930   3.8857   4.3015   4.5280
     4.6197   4.7363   5.0201   5.3606   5.4398   5.6823   5.7761   5.7947
     6.0655   6.0930   6.1807   6.3783

     occupation numbers 
     1.0000   1.0000   1.0000   1.0000   1.0000   1.0000   1.0000   1.0000
     1.0000   1.0000   1.0000   1.0000   1.0000   1.0000   1.0000   1.0000
     1.0000   1.0000   1.0000   1.0000   1.0000   1.0000   0.0000   0.0000
     0.0000   0.0000   0.0000   0.0000   0.0000   0.0000   0.0000   0.0000
     0.0000   0.0000   0.0000   0.0000   0.0000   0.0000   0.0000   0.0000
     0.0000   0.0000   0.0000   0.0000   0.0000   0.0000   0.0000   0.0000
     0.0000   0.0000   0.0000   0.0000   0.0000   0.0000   0.0000   0.0000
     0.0000   0.0000   0.0000   0.0000

          k = 0.0150 0.0000 0.0000 (101833 PWs)   bands (ev):

   -21.7648 -20.2754 -18.0425 -16.7358 -15.8865 -15.6260 -15.3097 -13.1318
   -12.9275 -12.1542 -10.9181 -10.5981 -10.0180  -9.8411  -8.7198  -8.2108
    -8.0661  -6.8380  -6.3267  -5.7463  -4.6407  -3.1746  -2.7066  -1.5263
     0.1213   0.1614   0.4592   0.7336   1.0441   1.1939   1.4750   1.5410
     1.7461   1.8420   2.1805   2.3077   2.8243   2.9866   3.2346   3.3337
     3.3979   3.4251   3.5110   3.6023   3.7942   3.8867   4.3023   4.5291
     4.6206   4.7363   5.0213   5.3617   5.4409   5.6836   5.7768   5.7957
     6.0624   6.0941   6.1814   6.3792

     occupation numbers 
     1.0000   1.0000   1.0000   1.0000   1.0000   1.0000   1.0000   1.0000
     1.0000   1.0000   1.0000   1.0000   1.0000   1.0000   1.0000   1.0000
     1.0000   1.0000   1.0000   1.0000   1.0000   1.0000   0.0000   0.0000
     0.0000   0.0000   0.0000   0.0000   0.0000   0.0000   0.0000   0.0000
     0.0000   0.0000   0.0000   0.0000   0.0000   0.0000   0.0000   0.0000
     0.0000   0.0000   0.0000   0.0000   0.0000   0.0000   0.0000   0.0000
     0.0000   0.0000   0.0000   0.0000   0.0000   0.0000   0.0000   0.0000
     0.0000   0.0000   0.0000   0.0000

          k = 0.0200 0.0000 0.0000 (101849 PWs)   bands (ev):

   -21.7638 -20.2745 -18.0420 -16.7515 -15.8962 -15.6089 -15.3036 -13.1402
   -12.9221 -12.1482 -10.9142 -10.6050 -10.0140  -9.8399  -8.7174  -8.2097
    -8.0696  -6.8391  -6.3290  -5.7459  -4.6482  -3.1967  -2.6850  -1.5177
     0.1227   0.1590   0.4606   0.7350   1.0457   1.1953   1.4765   1.5424
     1.7475   1.8434   2.1818   2.3091   2.8259   2.9880   3.2361   3.3352
     3.3993   3.4254   3.5124   3.6001   3.7959   3.8881   4.3035   4.5306
     4.6217   4.7363   5.0228   5.3633   5.4424   5.6854   5.7779   5.7970
     6.0582   6.0956   6.1823   6.3804

     occupation numbers 
     1.0000   1.0000   1.0000   1.0000   1.0000   1.0000   1.0000   1.0000
     1.0000   1.0000   1.0000   1.0000   1.0000   1.0000   1.0000   1.0000
     1.0000   1.0000   1.0000   1.0000   1.0000   1.0000   0.0000   0.0000
     0.0000   0.0000   0.0000   0.0000   0.0000   0.0000   0.0000   0.0000
     0.0000   0.0000   0.0000   0.0000   0.0000   0.0000   0.0000   0.0000
     0.0000   0.0000   0.0000   0.0000   0.0000   0.0000   0.0000   0.0000
     0.0000   0.0000   0.0000   0.0000   0.0000   0.0000   0.0000   0.0000
     0.0000   0.0000   0.0000   0.0000

          k = 0.0250 0.0000 0.0000 (101845 PWs)   bands (ev):

   -21.7625 -20.2732 -18.0413 -16.7710 -15.9084 -15.5876 -15.2960 -13.1509
   -12.9152 -12.1407 -10.9092 -10.6137 -10.0089  -9.8383  -8.7145  -8.2083
    -8.0740  -6.8406  -6.3320  -5.7453  -4.6578  -3.2226  -2.6597  -1.5068
     0.1244   0.1559   0.4624   0.7367   1.0477   1.1971   1.4785   1.5442
     1.7493   1.8451   2.1835   2.3109   2.8281   2.9897   3.2380   3.3372
     3.4011   3.4257   3.5142   3.5973   3.7981   3.8899   4.3050   4.5326
     4.6232   4.7363   5.0248   5.3653   5.4443   5.6877   5.7792   5.7988
     6.0527   6.0976   6.1835   6.3820

     occupation numbers 
     1.0000   1.0000   1.0000   1.0000   1.0000   1.0000   1.0000   1.0000
     1.0000   1.0000   1.0000   1.0000   1.0000   1.0000   1.0000   1.0000
     1.0000   1.0000   1.0000   1.0000   1.0000   1.0000   0.0000   0.0000
     0.0000   0.0000   0.0000   0.0000   0.0000   0.0000   0.0000   0.0000
     0.0000   0.0000   0.0000   0.0000   0.0000   0.0000   0.0000   0.0000
     0.0000   0.0000   0.0000   0.0000   0.0000   0.0000   0.0000   0.0000
     0.0000   0.0000   0.0000   0.0000   0.0000   0.0000   0.0000   0.0000
     0.0000   0.0000   0.0000   0.0000

          k = 0.0300 0.0000 0.0000 (101863 PWs)   bands (ev):

   -21.7609 -20.2717 -18.0405 -16.7939 -15.9228 -15.5625 -15.2871 -13.1636
   -12.9068 -12.1319 -10.9031 -10.6241 -10.0030  -9.8365  -8.7109  -8.2066
    -8.0794  -6.8424  -6.3356  -5.7445  -4.6694  -3.2515  -2.6317  -1.4935
     0.1265   0.1521   0.4645   0.7389   1.0503   1.1993   1.4809   1.5464
     1.7515   1.8473   2.1855   2.3130   2.8307   2.9919   3.2403   3.3395
     3.4034   3.4260   3.5164   3.5941   3.8007   3.8921   4.3069   4.5350
     4.6250   4.7364   5.0272   5.3678   5.4467   5.6905   5.7808   5.8009
     6.0459   6.1000   6.1849   6.3839

     occupation numbers 
     1.0000   1.0000   1.0000   1.0000   1.0000   1.0000   1.0000   1.0000
     1.0000   1.0000   1.0000   1.0000   1.0000   1.0000   1.0000   1.0000
     1.0000   1.0000   1.0000   1.0000   1.0000   1.0000   0.0000   0.0000
     0.0000   0.0000   0.0000   0.0000   0.0000   0.0000   0.0000   0.0000
     0.0000   0.0000   0.0000   0.0000   0.0000   0.0000   0.0000   0.0000
     0.0000   0.0000   0.0000   0.0000   0.0000   0.0000   0.0000   0.0000
     0.0000   0.0000   0.0000   0.0000   0.0000   0.0000   0.0000   0.0000
     0.0000   0.0000   0.0000   0.0000

          k = 0.0350 0.0000 0.0000 (101871 PWs)   bands (ev):

   -21.7590 -20.2700 -18.0396 -16.8197 -15.9393 -15.5340 -15.2771 -13.1783
   -12.8969 -12.1217 -10.8959 -10.6361  -9.9962  -9.8342  -8.7067  -8.2045
    -8.0857  -6.8445  -6.3399  -5.7437  -4.6830  -3.2825  -2.6017  -1.4779
     0.1290   0.1476   0.4671   0.7414   1.0533   1.2018   1.4837   1.5491
     1.7541   1.8499   2.1880   2.3156   2.8338   2.9945   3.2431   3.3423
     3.4060   3.4262   3.5190   3.5905   3.8039   3.8947   4.3091   4.5379
     4.6271   4.7365   5.0301   5.3707   5.4495   5.6938   5.7826   5.8034
     6.0379   6.1029   6.1865   6.3863

     occupation numbers 
     1.0000   1.0000   1.0000   1.0000   1.0000   1.0000   1.0000   1.0000
     1.0000   1.0000   1.0000   1.0000   1.0000   1.0000   1.0000   1.0000
     1.0000   1.0000   1.0000   1.0000   1.0000   1.0000   0.0000   0.0000
     0.0000   0.0000   0.0000   0.0000   0.0000   0.0000   0.0000   0.0000
     0.0000   0.0000   0.0000   0.0000   0.0000   0.0000   0.0000   0.0000
     0.0000   0.0000   0.0000   0.0000   0.0000   0.0000   0.0000   0.0000
     0.0000   0.0000   0.0000   0.0000   0.0000   0.0000   0.0000   0.0000
     0.0000   0.0000   0.0000   0.0000

          k = 0.0400 0.0000 0.0000 (101885 PWs)   bands (ev):

   -21.7569 -20.2680 -18.0385 -16.8482 -15.9576 -15.5025 -15.2662 -13.1949
   -12.8855 -12.1104 -10.8876 -10.6495  -9.9886  -9.8317  -8.7019  -8.2022
    -8.0930  -6.8470  -6.3448  -5.7427  -4.6985  -3.3151  -2.5702  -1.4601
     0.1318   0.1425   0.4701   0.7444   1.0567   1.2048   1.4870   1.5521
     1.7571   1.8528   2.1908   2.3186   2.8374   2.9975   3.2463   3.3456
     3.4090   3.4262   3.5220   3.5866   3.8075   3.8977   4.3117   4.5411
     4.6296   4.7367   5.0335   5.3740   5.4527   5.6977   5.7848   5.8063
     6.0285   6.1062   6.1882   6.3767

     occupation numbers 
     1.0000   1.0000   1.0000   1.0000   1.0000   1.0000   1.0000   1.0000
     1.0000   1.0000   1.0000   1.0000   1.0000   1.0000   1.0000   1.0000
     1.0000   1.0000   1.0000   1.0000   1.0000   1.0000   0.0000   0.0000
     0.0000   0.0000   0.0000   0.0000   0.0000   0.0000   0.0000   0.0000
     0.0000   0.0000   0.0000   0.0000   0.0000   0.0000   0.0000   0.0000
     0.0000   0.0000   0.0000   0.0000   0.0000   0.0000   0.0000   0.0000
     0.0000   0.0000   0.0000   0.0000   0.0000   0.0000   0.0000   0.0000
     0.0000   0.0000   0.0000   0.0000

          k = 0.0450 0.0000 0.0000 (101885 PWs)   bands (ev):

   -21.7545 -20.2657 -18.0373 -16.8788 -15.9776 -15.4684 -15.2545 -13.2131
   -12.8727 -12.0980 -10.8783 -10.6644  -9.9804  -9.8288  -8.6966  -8.1995
    -8.1012  -6.8499  -6.3503  -5.7416  -4.7158  -3.3491  -2.5375  -1.4402
     0.1351   0.1367   0.4735   0.7477   1.0606   1.2082   1.4907   1.5555
     1.7606   1.8562   2.1940   2.3220   2.8414   3.0008   3.2499   3.3492
     3.4125   3.4258   3.5254   3.5825   3.8115   3.9011   4.3146   4.5447
     4.6323   4.7370   5.0372   5.3776   5.4563   5.7020   5.7871   5.8095
     6.0179   6.1099   6.1899   6.3598

     occupation numbers 
     1.0000   1.0000   1.0000   1.0000   1.0000   1.0000   1.0000   1.0000
     1.0000   1.0000   1.0000   1.0000   1.0000   1.0000   1.0000   1.0000
     1.0000   1.0000   1.0000   1.0000   1.0000   1.0000   0.0000   0.0000
     0.0000   0.0000   0.0000   0.0000   0.0000   0.0000   0.0000   0.0000
     0.0000   0.0000   0.0000   0.0000   0.0000   0.0000   0.0000   0.0000
     0.0000   0.0000   0.0000   0.0000   0.0000   0.0000   0.0000   0.0000
     0.0000   0.0000   0.0000   0.0000   0.0000   0.0000   0.0000   0.0000
     0.0000   0.0000   0.0000   0.0000

          k = 0.0500 0.0000 0.0000 (101877 PWs)   bands (ev):

   -21.7518 -20.2631 -18.0359 -16.9113 -15.9992 -15.4320 -15.2422 -13.2329
   -12.8585 -12.0848 -10.8679 -10.6805  -9.9716  -9.8255  -8.6907  -8.1965
    -8.1103  -6.8532  -6.3565  -5.7403  -4.7349  -3.3840  -2.5040  -1.4182
     0.1303   0.1387   0.4773   0.7515   1.0649   1.2120   1.4948   1.5593
     1.7644   1.8600   2.1976   2.3257   2.8460   3.0046   3.2539   3.3533
     3.4163   3.4249   3.5292   3.5785   3.8160   3.9050   4.3178   4.5488
     4.6353   4.7374   5.0414   5.3816   5.4604   5.7069   5.7897   5.8132
     6.0059   6.1141   6.1915   6.3419

     occupation numbers 
     1.0000   1.0000   1.0000   1.0000   1.0000   1.0000   1.0000   1.0000
     1.0000   1.0000   1.0000   1.0000   1.0000   1.0000   1.0000   1.0000
     1.0000   1.0000   1.0000   1.0000   1.0000   1.0000   0.0000   0.0000
     0.0000   0.0000   0.0000   0.0000   0.0000   0.0000   0.0000   0.0000
     0.0000   0.0000   0.0000   0.0000   0.0000   0.0000   0.0000   0.0000
     0.0000   0.0000   0.0000   0.0000   0.0000   0.0000   0.0000   0.0000
     0.0000   0.0000   0.0000   0.0000   0.0000   0.0000   0.0000   0.0000
     0.0000   0.0000   0.0000   0.0000

          k = 0.0550 0.0000 0.0000 (101879 PWs)   bands (ev):

   -21.7487 -20.2603 -18.0345 -16.9454 -16.0220 -15.3935 -15.2295 -13.2541
   -12.8430 -12.0708 -10.8564 -10.6978  -9.9623  -9.8219  -8.6843  -8.1932
    -8.1202  -6.8568  -6.3633  -5.7390  -4.7557  -3.4198  -2.4699  -1.3942
     0.1233   0.1427   0.4815   0.7556   1.0697   1.2162   1.4994   1.5636
     1.7686   1.8641   2.2015   2.3299   2.8510   3.0088   3.2583   3.3578
     3.4206   3.4233   3.5334   3.5746   3.8210   3.9092   4.3213   4.5532
     4.6386   4.7379   5.0461   5.3859   5.4649   5.7122   5.7925   5.8172
     5.9927   6.1187   6.1928   6.3233

     occupation numbers 
     1.0000   1.0000   1.0000   1.0000   1.0000   1.0000   1.0000   1.0000
     1.0000   1.0000   1.0000   1.0000   1.0000   1.0000   1.0000   1.0000
     1.0000   1.0000   1.0000   1.0000   1.0000   1.0000   0.0000   0.0000
     0.0000   0.0000   0.0000   0.0000   0.0000   0.0000   0.0000   0.0000
     0.0000   0.0000   0.0000   0.0000   0.0000   0.0000   0.0000   0.0000
     0.0000   0.0000   0.0000   0.0000   0.0000   0.0000   0.0000   0.0000
     0.0000   0.0000   0.0000   0.0000   0.0000   0.0000   0.0000   0.0000
     0.0000   0.0000   0.0000   0.0000

          k = 0.0600 0.0000 0.0000 (101911 PWs)   bands (ev):

   -21.7455 -20.2571 -18.0330 -16.9808 -16.0461 -15.3533 -15.2164 -13.2766
   -12.8260 -12.0561 -10.8439 -10.7162  -9.9527  -9.8180  -8.6774  -8.1896
    -8.1311  -6.8609  -6.3707  -5.7375  -4.7782  -3.4561  -2.4352  -1.3682
     0.1157   0.1471   0.4860   0.7601   1.0749   1.2208   1.5044   1.5682
     1.7732   1.8687   2.2058   2.3344   2.8564   3.0133   3.2631   3.3628
     3.4208   3.4252   3.5380   3.5712   3.8264   3.9138   4.3252   4.5580
     4.6422   4.7386   5.0511   5.3905   5.4698   5.7181   5.7953   5.8216
     5.9782   6.1238   6.1932   6.3048

     occupation numbers 
     1.0000   1.0000   1.0000   1.0000   1.0000   1.0000   1.0000   1.0000
     1.0000   1.0000   1.0000   1.0000   1.0000   1.0000   1.0000   1.0000
     1.0000   1.0000   1.0000   1.0000   1.0000   1.0000   0.0000   0.0000
     0.0000   0.0000   0.0000   0.0000   0.0000   0.0000   0.0000   0.0000
     0.0000   0.0000   0.0000   0.0000   0.0000   0.0000   0.0000   0.0000
     0.0000   0.0000   0.0000   0.0000   0.0000   0.0000   0.0000   0.0000
     0.0000   0.0000   0.0000   0.0000   0.0000   0.0000   0.0000   0.0000
     0.0000   0.0000   0.0000   0.0000

          k = 0.0650 0.0000 0.0000 (101919 PWs)   bands (ev):

   -21.7419 -20.2538 -18.0314 -17.0172 -16.0713 -15.3116 -15.2029 -13.3002
   -12.8078 -12.0409 -10.8305 -10.7356  -9.9426  -9.8137  -8.6700  -8.1856
    -8.1428  -6.8655  -6.3788  -5.7359  -4.8021  -3.4930  -2.4002  -1.3405
     0.1074   0.1519   0.4910   0.7650   1.0806   1.2258   1.5098   1.5733
     1.7782   1.8736   2.2106   2.3394   2.8623   3.0183   3.2684   3.3681
     3.4172   3.4303   3.5430   3.5685   3.8323   3.9188   4.3294   4.5632
     4.6460   4.7395   5.0567   5.3954   5.4752   5.7244   5.7982   5.8263
     5.9625   6.1293   6.1921   6.2871

     occupation numbers 
     1.0000   1.0000   1.0000   1.0000   1.0000   1.0000   1.0000   1.0000
     1.0000   1.0000   1.0000   1.0000   1.0000   1.0000   1.0000   1.0000
     1.0000   1.0000   1.0000   1.0000   1.0000   1.0000   0.0000   0.0000
     0.0000   0.0000   0.0000   0.0000   0.0000   0.0000   0.0000   0.0000
     0.0000   0.0000   0.0000   0.0000   0.0000   0.0000   0.0000   0.0000
     0.0000   0.0000   0.0000   0.0000   0.0000   0.0000   0.0000   0.0000
     0.0000   0.0000   0.0000   0.0000   0.0000   0.0000   0.0000   0.0000
     0.0000   0.0000   0.0000   0.0000

          k = 0.0700 0.0000 0.0000 (101911 PWs)   bands (ev):

   -21.7380 -20.2501 -18.0297 -17.0545 -16.0975 -15.2686 -15.1893 -13.3249
   -12.7882 -12.0252 -10.8160 -10.7558  -9.9322  -9.8091  -8.6623  -8.1814
    -8.1553  -6.8705  -6.3875  -5.7342  -4.8275  -3.5303  -2.3649  -1.3109
     0.0986   0.1570   0.4963   0.7703   1.0867   1.2312   1.5157   1.5787
     1.7837   1.8789   2.2157   2.3447   2.8687   3.0236   3.2740   3.3738
     3.4123   3.4358   3.5484   3.5666   3.8385   3.9242   4.3339   4.5687
     4.6500   4.7406   5.0626   5.4004   5.4809   5.7313   5.8008   5.8314
     5.9459   6.1352   6.1881   6.2718

     occupation numbers 
     1.0000   1.0000   1.0000   1.0000   1.0000   1.0000   1.0000   1.0000
     1.0000   1.0000   1.0000   1.0000   1.0000   1.0000   1.0000   1.0000
     1.0000   1.0000   1.0000   1.0000   1.0000   1.0000   0.0000   0.0000
     0.0000   0.0000   0.0000   0.0000   0.0000   0.0000   0.0000   0.0000
     0.0000   0.0000   0.0000   0.0000   0.0000   0.0000   0.0000   0.0000
     0.0000   0.0000   0.0000   0.0000   0.0000   0.0000   0.0000   0.0000
     0.0000   0.0000   0.0000   0.0000   0.0000   0.0000   0.0000   0.0000
     0.0000   0.0000   0.0000   0.0000

          k = 0.0750 0.0000 0.0000 (101919 PWs)   bands (ev):

   -21.7339 -20.2462 -18.0280 -17.0926 -16.1245 -15.2244 -15.1755 -13.3506
   -12.7675 -12.0092 -10.8005 -10.7769  -9.9216  -9.8041  -8.6541  -8.1768
    -8.1687  -6.8759  -6.3967  -5.7324  -4.8543  -3.5679  -2.3293  -1.2797
     0.0892   0.1625   0.5021   0.7760   1.0933   1.2370   1.5220   1.5845
     1.7895   1.8847   2.2211   2.3505   2.8756   3.0294   3.2801   3.3799
     3.4061   3.4416   3.5542   3.5658   3.8452   3.9300   4.3388   4.5745
     4.6543   4.7420   5.0690   5.4055   5.4871   5.7386   5.8029   5.8369
     5.9287   6.1415   6.1799   6.2605

     occupation numbers 
     1.0000   1.0000   1.0000   1.0000   1.0000   1.0000   1.0000   1.0000
     1.0000   1.0000   1.0000   1.0000   1.0000   1.0000   1.0000   1.0000
     1.0000   1.0000   1.0000   1.0000   1.0000   1.0000   0.0000   0.0000
     0.0000   0.0000   0.0000   0.0000   0.0000   0.0000   0.0000   0.0000
     0.0000   0.0000   0.0000   0.0000   0.0000   0.0000   0.0000   0.0000
     0.0000   0.0000   0.0000   0.0000   0.0000   0.0000   0.0000   0.0000
     0.0000   0.0000   0.0000   0.0000   0.0000   0.0000   0.0000   0.0000
     0.0000   0.0000   0.0000   0.0000

          k = 0.0800 0.0000 0.0000 (101901 PWs)   bands (ev):

   -21.7294 -20.2420 -18.0263 -17.1311 -16.1524 -15.1791 -15.1617 -13.3770
   -12.7455 -11.9928 -10.7987 -10.7841  -9.9108  -9.7988  -8.6456  -8.1828
    -8.1719  -6.8819  -6.4066  -5.7304  -4.8824  -3.6059  -2.2937  -1.2469
     0.0792   0.1685   0.5082   0.7821   1.1002   1.2431   1.5287   1.5908
     1.7957   1.8908   2.2270   2.3566   2.8829   3.0355   3.2865   3.3858
     3.3989   3.4479   3.5604   3.5661   3.8523   3.9362   4.3440   4.5806
     4.6587   4.7437   5.0758   5.4107   5.4937   5.7464   5.8039   5.8426
     5.9115   6.1483   6.1667   6.2540

     occupation numbers 
     1.0000   1.0000   1.0000   1.0000   1.0000   1.0000   1.0000   1.0000
     1.0000   1.0000   1.0000   1.0000   1.0000   1.0000   1.0000   1.0000
     1.0000   1.0000   1.0000   1.0000   1.0000   1.0000   0.0000   0.0000
     0.0000   0.0000   0.0000   0.0000   0.0000   0.0000   0.0000   0.0000
     0.0000   0.0000   0.0000   0.0000   0.0000   0.0000   0.0000   0.0000
     0.0000   0.0000   0.0000   0.0000   0.0000   0.0000   0.0000   0.0000
     0.0000   0.0000   0.0000   0.0000   0.0000   0.0000   0.0000   0.0000
     0.0000   0.0000   0.0000   0.0000

          k = 0.0850 0.0000 0.0000 (101893 PWs)   bands (ev):

   -21.7247 -20.2376 -18.0245 -17.1701 -16.1810 -15.1478 -15.1330 -13.4043
   -12.7224 -11.9762 -10.8212 -10.7668  -9.8998  -9.7932  -8.6367  -8.1976
    -8.1667  -6.8884  -6.4171  -5.7284  -4.9116  -3.6440  -2.2578  -1.2126
     0.0687   0.1748   0.5147   0.7886   1.1076   1.2497   1.5358   1.5974
     1.8024   1.8973   2.2333   2.3632   2.8907   3.0420   3.2934   3.3862
     3.3961   3.4546   3.5670   3.5675   3.8598   3.9429   4.3495   4.5870
     4.6632   4.7458   5.0831   5.4159   5.5007   5.7548   5.8026   5.8487
     5.8954   6.1495   6.1555   6.2516

     occupation numbers 
     1.0000   1.0000   1.0000   1.0000   1.0000   1.0000   1.0000   1.0000
     1.0000   1.0000   1.0000   1.0000   1.0000   1.0000   1.0000   1.0000
     1.0000   1.0000   1.0000   1.0000   1.0000   1.0000   0.0000   0.0000
     0.0000   0.0000   0.0000   0.0000   0.0000   0.0000   0.0000   0.0000
     0.0000   0.0000   0.0000   0.0000   0.0000   0.0000   0.0000   0.0000
     0.0000   0.0000   0.0000   0.0000   0.0000   0.0000   0.0000   0.0000
     0.0000   0.0000   0.0000   0.0000   0.0000   0.0000   0.0000   0.0000
     0.0000   0.0000   0.0000   0.0000

          k = 0.0900 0.0000 0.0000 (101885 PWs)   bands (ev):

   -21.7197 -20.2328 -18.0228 -17.2093 -16.2102 -15.1338 -15.0860 -13.4321
   -12.6981 -11.9595 -10.8444 -10.7486  -9.8886  -9.7872  -8.6276  -8.2133
    -8.1612  -6.8954  -6.4281  -5.7263  -4.9420  -3.6824  -2.2219  -1.1769
     0.0577   0.1815   0.5217   0.7955   1.1154   1.2567   1.5433   1.6045
     1.8094   1.9043   2.2399   2.3701   2.8989   3.0490   3.3006   3.3764
     3.4023   3.4617   3.5701   3.5740   3.8676   3.9499   4.3552   4.5936
     4.6679   4.7483   5.0908   5.4209   5.5081   5.7636   5.7973   5.8551
     5.8824   6.1299   6.1631   6.2518

     occupation numbers 
     1.0000   1.0000   1.0000   1.0000   1.0000   1.0000   1.0000   1.0000
     1.0000   1.0000   1.0000   1.0000   1.0000   1.0000   1.0000   1.0000
     1.0000   1.0000   1.0000   1.0000   1.0000   1.0000   0.0000   0.0000
     0.0000   0.0000   0.0000   0.0000   0.0000   0.0000   0.0000   0.0000
     0.0000   0.0000   0.0000   0.0000   0.0000   0.0000   0.0000   0.0000
     0.0000   0.0000   0.0000   0.0000   0.0000   0.0000   0.0000   0.0000
     0.0000   0.0000   0.0000   0.0000   0.0000   0.0000   0.0000   0.0000
     0.0000   0.0000   0.0000   0.0000

          k = 0.0950 0.0000 0.0000 (101901 PWs)   bands (ev):

   -21.7144 -20.2278 -18.0212 -17.2486 -16.2401 -15.1199 -15.0383 -13.4606
   -12.6728 -11.9426 -10.8680 -10.7296  -9.8772  -9.7809  -8.6182  -8.2296
    -8.1554  -6.9029  -6.4397  -5.7241  -4.9734  -3.7210  -2.1860  -1.1397
     0.0462   0.1886   0.5290   0.8027   1.1237   1.2641   1.5513   1.6119
     1.8168   1.9116   2.2469   2.3774   2.9076   3.0563   3.3083   3.3642
     3.4100   3.4691   3.5738   3.5814   3.8759   3.9573   4.3613   4.6005
     4.6726   4.7511   5.0989   5.4257   5.5159   5.7728   5.7860   5.8617
     5.8743   6.1091   6.1711   6.2536

     occupation numbers 
     1.0000   1.0000   1.0000   1.0000   1.0000   1.0000   1.0000   1.0000
     1.0000   1.0000   1.0000   1.0000   1.0000   1.0000   1.0000   1.0000
     1.0000   1.0000   1.0000   1.0000   1.0000   1.0000   0.0000   0.0000
     0.0000   0.0000   0.0000   0.0000   0.0000   0.0000   0.0000   0.0000
     0.0000   0.0000   0.0000   0.0000   0.0000   0.0000   0.0000   0.0000
     0.0000   0.0000   0.0000   0.0000   0.0000   0.0000   0.0000   0.0000
     0.0000   0.0000   0.0000   0.0000   0.0000   0.0000   0.0000   0.0000
     0.0000   0.0000   0.0000   0.0000

          k = 0.1000 0.0000 0.0000 (101897 PWs)   bands (ev):

   -21.7089 -20.2226 -18.0197 -17.2879 -16.2705 -15.1060 -14.9900 -13.4896
   -12.6464 -11.9256 -10.8922 -10.7097  -9.8658  -9.7742  -8.6086  -8.2466
    -8.1493  -6.9111  -6.4519  -5.7219  -5.0058  -3.7597  -2.1500  -1.1014
     0.0342   0.1960   0.5366   0.8104   1.1324   1.2719   1.5597   1.6198
     1.8247   1.9193   2.2543   2.3852   2.9167   3.0641   3.3163   3.3504
     3.4182   3.4770   3.5786   3.5892   3.8844   3.9651   4.3677   4.6075
     4.6774   4.7545   5.1074   5.4300   5.5241   5.7686   5.7826   5.8686
     5.8714   6.0881   6.1796   6.2562

     occupation numbers 
     1.0000   1.0000   1.0000   1.0000   1.0000   1.0000   1.0000   1.0000
     1.0000   1.0000   1.0000   1.0000   1.0000   1.0000   1.0000   1.0000
     1.0000   1.0000   1.0000   1.0000   1.0000   1.0000   0.0000   0.0000
     0.0000   0.0000   0.0000   0.0000   0.0000   0.0000   0.0000   0.0000
     0.0000   0.0000   0.0000   0.0000   0.0000   0.0000   0.0000   0.0000
     0.0000   0.0000   0.0000   0.0000   0.0000   0.0000   0.0000   0.0000
     0.0000   0.0000   0.0000   0.0000   0.0000   0.0000   0.0000   0.0000
     0.0000   0.0000   0.0000   0.0000

          k = 0.1050 0.0000 0.0000 (101911 PWs)   bands (ev):

   -21.7030 -20.2171 -18.0185 -17.3271 -16.3014 -15.0921 -14.9411 -13.5190
   -12.6190 -11.9085 -10.9169 -10.6890  -9.8542  -9.7672  -8.5989  -8.2642
    -8.1429  -6.9198  -6.4646  -5.7196  -5.0390  -3.7986  -2.1140  -1.0618
     0.0217   0.2039   0.5447   0.8185   1.1415   1.2801   1.5685   1.6280
     1.8329   1.9274   2.2621   2.3933   2.9263   3.0722   3.3247   3.3353
     3.4270   3.4853   3.5842   3.5974   3.8933   3.9733   4.3744   4.6147
     4.6822   4.7584   5.1164   5.4339   5.5327   5.7463   5.7928   5.8724
     5.8756   6.0673   6.1884   6.2593

     occupation numbers 
     1.0000   1.0000   1.0000   1.0000   1.0000   1.0000   1.0000   1.0000
     1.0000   1.0000   1.0000   1.0000   1.0000   1.0000   1.0000   1.0000
     1.0000   1.0000   1.0000   1.0000   1.0000   1.0000   0.0000   0.0000
     0.0000   0.0000   0.0000   0.0000   0.0000   0.0000   0.0000   0.0000
     0.0000   0.0000   0.0000   0.0000   0.0000   0.0000   0.0000   0.0000
     0.0000   0.0000   0.0000   0.0000   0.0000   0.0000   0.0000   0.0000
     0.0000   0.0000   0.0000   0.0000   0.0000   0.0000   0.0000   0.0000
     0.0000   0.0000   0.0000   0.0000

          k = 0.1100 0.0000 0.0000 (101935 PWs)   bands (ev):

   -21.6969 -20.2113 -18.0175 -17.3661 -16.3327 -15.0783 -14.8917 -13.5489
   -12.5907 -11.8915 -10.9420 -10.6676  -9.8425  -9.7599  -8.5890  -8.2825
    -8.1361  -6.9291  -6.4779  -5.7172  -5.0731  -3.8375  -2.0779  -1.0210
     0.0088   0.2121   0.5531   0.8269   1.1510   1.2886   1.5777   1.6366
     1.8415   1.9360   2.2703   2.4018   2.9363   3.0807   3.3190   3.3335
     3.4361   3.4940   3.5908   3.6060   3.9026   3.9819   4.3813   4.6221
     4.6869   4.7629   5.1258   5.4371   5.5418   5.7209   5.8035   5.8760
     5.8825   6.0475   6.1977   6.2625

     occupation numbers 
     1.0000   1.0000   1.0000   1.0000   1.0000   1.0000   1.0000   1.0000
     1.0000   1.0000   1.0000   1.0000   1.0000   1.0000   1.0000   1.0000
     1.0000   1.0000   1.0000   1.0000   1.0000   1.0000   0.0000   0.0000
     0.0000   0.0000   0.0000   0.0000   0.0000   0.0000   0.0000   0.0000
     0.0000   0.0000   0.0000   0.0000   0.0000   0.0000   0.0000   0.0000
     0.0000   0.0000   0.0000   0.0000   0.0000   0.0000   0.0000   0.0000
     0.0000   0.0000   0.0000   0.0000   0.0000   0.0000   0.0000   0.0000
     0.0000   0.0000   0.0000   0.0000

          k = 0.1150 0.0000 0.0000 (101931 PWs)   bands (ev):

   -21.6904 -20.2052 -18.0168 -17.4047 -16.3645 -15.0645 -14.8418 -13.5790
   -12.5615 -11.8744 -10.9674 -10.6454  -9.8307  -9.7522  -8.5790  -8.3014
    -8.1290  -6.9390  -6.4917  -5.7149  -5.1078  -3.8766  -2.0419  -0.9792
    -0.0045   0.2207   0.5620   0.8358   1.1609   1.2976   1.5873   1.6457
     1.8506   1.9449   2.2789   2.4107   2.9468   3.0896   3.3016   3.3427
     3.4457   3.5031   3.5981   3.6150   3.9121   3.9909   4.3885   4.6295
     4.6914   4.7679   5.1356   5.4394   5.5512   5.6932   5.8146   5.8812
     5.8893   6.0290   6.2073   6.2656

     occupation numbers 
     1.0000   1.0000   1.0000   1.0000   1.0000   1.0000   1.0000   1.0000
     1.0000   1.0000   1.0000   1.0000   1.0000   1.0000   1.0000   1.0000
     1.0000   1.0000   1.0000   1.0000   1.0000   1.0000   0.0000   0.0000
     0.0000   0.0000   0.0000   0.0000   0.0000   0.0000   0.0000   0.0000
     0.0000   0.0000   0.0000   0.0000   0.0000   0.0000   0.0000   0.0000
     0.0000   0.0000   0.0000   0.0000   0.0000   0.0000   0.0000   0.0000
     0.0000   0.0000   0.0000   0.0000   0.0000   0.0000   0.0000   0.0000
     0.0000   0.0000   0.0000   0.0000

          k = 0.1200 0.0000 0.0000 (101937 PWs)   bands (ev):

   -21.6837 -20.1989 -18.0167 -17.4427 -16.3966 -15.0508 -14.7916 -13.6094
   -12.5314 -11.8573 -10.9932 -10.6226  -9.8188  -9.7441  -8.5689  -8.3209
    -8.1217  -6.9496  -6.5060  -5.7125  -5.1432  -3.9157  -2.0059  -0.9364
    -0.0183   0.2298   0.5712   0.8450   1.1712   1.3070   1.5973   1.6551
     1.8600   1.9542   2.2879   2.4200   2.9578   3.0989   3.2832   3.3522
     3.4557   3.5126   3.6062   3.6244   3.9220   4.0003   4.3959   4.6370
     4.6959   4.7735   5.1458   5.4407   5.5611   5.6638   5.8262   5.8875
     5.8956   6.0126   6.2174   6.2684

     occupation numbers 
     1.0000   1.0000   1.0000   1.0000   1.0000   1.0000   1.0000   1.0000
     1.0000   1.0000   1.0000   1.0000   1.0000   1.0000   1.0000   1.0000
     1.0000   1.0000   1.0000   1.0000   1.0000   1.0000   0.0000   0.0000
     0.0000   0.0000   0.0000   0.0000   0.0000   0.0000   0.0000   0.0000
     0.0000   0.0000   0.0000   0.0000   0.0000   0.0000   0.0000   0.0000
     0.0000   0.0000   0.0000   0.0000   0.0000   0.0000   0.0000   0.0000
     0.0000   0.0000   0.0000   0.0000   0.0000   0.0000   0.0000   0.0000
     0.0000   0.0000   0.0000   0.0000

          k = 0.1250 0.0000 0.0000 (101905 PWs)   bands (ev):

   -21.6767 -20.1923 -18.0172 -17.4799 -16.4291 -15.0371 -14.7411 -13.6401
   -12.5006 -11.8402 -11.0192 -10.5991  -9.8069  -9.7358  -8.5588  -8.3410
    -8.1140  -6.9608  -6.5209  -5.7102  -5.1791  -3.9549  -1.9699  -0.8927
    -0.0324   0.2392   0.5808   0.8547   1.1820   1.3168   1.6077   1.6649
     1.8699   1.9639   2.2972   2.4297   2.9691   3.1087   3.2639   3.3621
     3.4662   3.5225   3.6149   3.6342   3.9321   4.0102   4.4035   4.6444
     4.7001   4.7798   5.1564   5.4407   5.5713   5.6333   5.8383   5.8946
     5.9007   5.9988   6.2278   6.2707

     occupation numbers 
     1.0000   1.0000   1.0000   1.0000   1.0000   1.0000   1.0000   1.0000
     1.0000   1.0000   1.0000   1.0000   1.0000   1.0000   1.0000   1.0000
     1.0000   1.0000   1.0000   1.0000   1.0000   1.0000   0.0000   0.0000
     0.0000   0.0000   0.0000   0.0000   0.0000   0.0000   0.0000   0.0000
     0.0000   0.0000   0.0000   0.0000   0.0000   0.0000   0.0000   0.0000
     0.0000   0.0000   0.0000   0.0000   0.0000   0.0000   0.0000   0.0000
     0.0000   0.0000   0.0000   0.0000   0.0000   0.0000   0.0000   0.0000
     0.0000   0.0000   0.0000   0.0000

          k = 0.1300 0.0000 0.0000 (101909 PWs)   bands (ev):

   -21.6694 -20.1854 -18.0186 -17.5162 -16.4619 -15.0235 -14.6903 -13.6709
   -12.4689 -11.8231 -11.0455 -10.5750  -9.7948  -9.7271  -8.5487  -8.3615
    -8.1060  -6.9727  -6.5362  -5.7079  -5.2155  -3.9941  -1.9340  -0.8481
    -0.0469   0.2490   0.5907   0.8648   1.1932   1.3270   1.6186   1.6752
     1.8801   1.9740   2.3070   2.4398   2.9809   3.1188   3.2436   3.3724
     3.4770   3.5328   3.6243   3.6445   3.9424   4.0204   4.4113   4.6518
     4.7042   4.7866   5.1675   5.4394   5.5819   5.6020   5.8507   5.9024
     5.9040   5.9888   6.2384   6.2724

     occupation numbers 
     1.0000   1.0000   1.0000   1.0000   1.0000   1.0000   1.0000   1.0000
     1.0000   1.0000   1.0000   1.0000   1.0000   1.0000   1.0000   1.0000
     1.0000   1.0000   1.0000   1.0000   1.0000   1.0000   0.0000   0.0000
     0.0000   0.0000   0.0000   0.0000   0.0000   0.0000   0.0000   0.0000
     0.0000   0.0000   0.0000   0.0000   0.0000   0.0000   0.0000   0.0000
     0.0000   0.0000   0.0000   0.0000   0.0000   0.0000   0.0000   0.0000
     0.0000   0.0000   0.0000   0.0000   0.0000   0.0000   0.0000   0.0000
     0.0000   0.0000   0.0000   0.0000

          k = 0.1350 0.0000 0.0000 (101875 PWs)   bands (ev):

   -21.6619 -20.1783 -18.0210 -17.5512 -16.4950 -15.0099 -14.6393 -13.7018
   -12.4366 -11.8060 -11.0720 -10.5503  -9.7827  -9.7180  -8.5387  -8.3827
    -8.0977  -6.9852  -6.5521  -5.7058  -5.2522  -4.0334  -1.8980  -0.8026
    -0.0617   0.2591   0.6011   0.8752   1.2048   1.3376   1.6298   1.6858
     1.8908   1.9846   2.3172   2.4503   2.9932   3.1293   3.2226   3.3830
     3.4883   3.5435   3.6343   3.6551   3.9530   4.0310   4.4192   4.6591
     4.7080   4.7940   5.1789   5.4365   5.5701   5.5930   5.8637   5.9045
     5.9108   5.9834   6.2489   6.2732

     occupation numbers 
     1.0000   1.0000   1.0000   1.0000   1.0000   1.0000   1.0000   1.0000
     1.0000   1.0000   1.0000   1.0000   1.0000   1.0000   1.0000   1.0000
     1.0000   1.0000   1.0000   1.0000   1.0000   1.0000   0.0000   0.0000
     0.0000   0.0000   0.0000   0.0000   0.0000   0.0000   0.0000   0.0000
     0.0000   0.0000   0.0000   0.0000   0.0000   0.0000   0.0000   0.0000
     0.0000   0.0000   0.0000   0.0000   0.0000   0.0000   0.0000   0.0000
     0.0000   0.0000   0.0000   0.0000   0.0000   0.0000   0.0000   0.0000
     0.0000   0.0000   0.0000   0.0000

          k = 0.1400 0.0000 0.0000 (101893 PWs)   bands (ev):

   -21.6540 -20.1709 -18.0249 -17.5847 -16.5283 -14.9964 -14.5881 -13.7327
   -12.4036 -11.7889 -11.0987 -10.5250  -9.7704  -9.7086  -8.5287  -8.4042
    -8.0890  -6.9985  -6.5684  -5.7039  -5.2891  -4.0728  -1.8622  -0.7564
    -0.0768   0.2697   0.6118   0.8860   1.2168   1.3486   1.6414   1.6968
     1.9018   1.9955   2.3277   2.4612   3.0059   3.1402   3.2007   3.3940
     3.5000   3.5546   3.6448   3.6661   3.9638   4.0420   4.4272   4.6663
     4.7115   4.8020   5.1908   5.4320   5.5379   5.6044   5.8770   5.9019
     5.9196   5.9830   6.2568   6.2731

     occupation numbers 
     1.0000   1.0000   1.0000   1.0000   1.0000   1.0000   1.0000   1.0000
     1.0000   1.0000   1.0000   1.0000   1.0000   1.0000   1.0000   1.0000
     1.0000   1.0000   1.0000   1.0000   1.0000   1.0000   0.0000   0.0000
     0.0000   0.0000   0.0000   0.0000   0.0000   0.0000   0.0000   0.0000
     0.0000   0.0000   0.0000   0.0000   0.0000   0.0000   0.0000   0.0000
     0.0000   0.0000   0.0000   0.0000   0.0000   0.0000   0.0000   0.0000
     0.0000   0.0000   0.0000   0.0000   0.0000   0.0000   0.0000   0.0000
     0.0000   0.0000   0.0000   0.0000

          k = 0.1450 0.0000 0.0000 (101833 PWs)   bands (ev):

   -21.6459 -20.1633 -18.0304 -17.6163 -16.5619 -14.9829 -14.5368 -13.7635
   -12.3700 -11.7719 -11.1254 -10.4993  -9.7581  -9.6989  -8.5188  -8.4263
    -8.0801  -7.0124  -6.5852  -5.7023  -5.3261  -4.1121  -1.8263  -0.7095
    -0.0922   0.2807   0.6229   0.8973   1.2292   1.3599   1.6533   1.7082
     1.9133   2.0068   2.3387   2.4725   3.0190   3.1515   3.1782   3.4054
     3.5121   3.5661   3.6560   3.6776   3.9748   4.0534   4.4352   4.6732
     4.7146   4.8105   5.2031   5.4259   5.5057   5.6162   5.8907   5.8969
     5.9289   5.9868   6.2418   6.2720

     occupation numbers 
     1.0000   1.0000   1.0000   1.0000   1.0000   1.0000   1.0000   1.0000
     1.0000   1.0000   1.0000   1.0000   1.0000   1.0000   1.0000   1.0000
     1.0000   1.0000   1.0000   1.0000   1.0000   1.0000   0.0000   0.0000
     0.0000   0.0000   0.0000   0.0000   0.0000   0.0000   0.0000   0.0000
     0.0000   0.0000   0.0000   0.0000   0.0000   0.0000   0.0000   0.0000
     0.0000   0.0000   0.0000   0.0000   0.0000   0.0000   0.0000   0.0000
     0.0000   0.0000   0.0000   0.0000   0.0000   0.0000   0.0000   0.0000
     0.0000   0.0000   0.0000   0.0000

          k = 0.1500 0.0000 0.0000 (101833 PWs)   bands (ev):

   -21.6375 -20.1553 -18.0381 -17.6455 -16.5956 -14.9695 -14.4856 -13.7942
   -12.3359 -11.7548 -11.1522 -10.4731  -9.7456  -9.6889  -8.5091  -8.4488
    -8.0709  -7.0271  -6.6025  -5.7012  -5.3630  -4.1515  -1.7906  -0.6620
    -0.1079   0.2920   0.6343   0.9089   1.2420   1.3717   1.6657   1.7200
     1.9251   2.0185   2.3501   2.4841   3.0325   3.1550   3.1632   3.4171
     3.5246   3.5780   3.6676   3.6894   3.9860   4.0652   4.4432   4.6798
     4.7174   4.8196   5.2157   5.4180   5.4738   5.6284   5.8906   5.9048
     5.9386   5.9936   6.2091   6.2701

     occupation numbers 
     1.0000   1.0000   1.0000   1.0000   1.0000   1.0000   1.0000   1.0000
     1.0000   1.0000   1.0000   1.0000   1.0000   1.0000   1.0000   1.0000
     1.0000   1.0000   1.0000   1.0000   1.0000   1.0000   0.0000   0.0000
     0.0000   0.0000   0.0000   0.0000   0.0000   0.0000   0.0000   0.0000
     0.0000   0.0000   0.0000   0.0000   0.0000   0.0000   0.0000   0.0000
     0.0000   0.0000   0.0000   0.0000   0.0000   0.0000   0.0000   0.0000
     0.0000   0.0000   0.0000   0.0000   0.0000   0.0000   0.0000   0.0000
     0.0000   0.0000   0.0000   0.0000

          k = 0.1550 0.0000 0.0000 (101833 PWs)   bands (ev):

   -21.6288 -20.1472 -18.0482 -17.6720 -16.6296 -14.9560 -14.4346 -13.8246
   -12.3013 -11.7378 -11.1790 -10.4465  -9.7331  -9.6784  -8.4996  -8.4717
    -8.0613  -7.0425  -6.6202  -5.7009  -5.3995  -4.1908  -1.7548  -0.6139
    -0.1237   0.3038   0.6462   0.9210   1.2553   1.3839   1.6784   1.7322
     1.9374   2.0306   2.3618   2.4962   3.0465   3.1311   3.1753   3.4292
     3.5375   3.5903   3.6798   3.7017   3.9973   4.0774   4.4509   4.6861
     4.7197   4.8291   5.2288   5.4086   5.4424   5.6410   5.8836   5.9193
     5.9487   6.0025   6.1734   6.2566

     occupation numbers 
     1.0000   1.0000   1.0000   1.0000   1.0000   1.0000   1.0000   1.0000
     1.0000   1.0000   1.0000   1.0000   1.0000   1.0000   1.0000   1.0000
     1.0000   1.0000   1.0000   1.0000   1.0000   1.0000   0.0000   0.0000
     0.0000   0.0000   0.0000   0.0000   0.0000   0.0000   0.0000   0.0000
     0.0000   0.0000   0.0000   0.0000   0.0000   0.0000   0.0000   0.0000
     0.0000   0.0000   0.0000   0.0000   0.0000   0.0000   0.0000   0.0000
     0.0000   0.0000   0.0000   0.0000   0.0000   0.0000   0.0000   0.0000
     0.0000   0.0000   0.0000   0.0000

          k = 0.1600 0.0000 0.0000 (101807 PWs)   bands (ev):

   -21.6198 -20.1387 -18.0613 -17.6953 -16.6637 -14.9426 -14.3839 -13.8544
   -12.2664 -11.7207 -11.2057 -10.4195  -9.7204  -9.6677  -8.4950  -8.4903
    -8.0515  -7.0586  -6.6383  -5.7016  -5.4351  -4.2302  -1.7192  -0.5654
    -0.1396   0.3159   0.6584   0.9334   1.2689   1.3965   1.6915   1.7448
     1.9500   2.0432   2.3740   2.5087   3.0609   3.1066   3.1878   3.4415
     3.5508   3.6030   3.6924   3.7143   4.0086   4.0900   4.4584   4.6919
     4.7215   4.8391   5.2422   5.3978   5.4119   5.6540   5.8762   5.9341
     5.9592   6.0127   6.1362   6.1977

     occupation numbers 
     1.0000   1.0000   1.0000   1.0000   1.0000   1.0000   1.0000   1.0000
     1.0000   1.0000   1.0000   1.0000   1.0000   1.0000   1.0000   1.0000
     1.0000   1.0000   1.0000   1.0000   1.0000   1.0000   0.0000   0.0000
     0.0000   0.0000   0.0000   0.0000   0.0000   0.0000   0.0000   0.0000
     0.0000   0.0000   0.0000   0.0000   0.0000   0.0000   0.0000   0.0000
     0.0000   0.0000   0.0000   0.0000   0.0000   0.0000   0.0000   0.0000
     0.0000   0.0000   0.0000   0.0000   0.0000   0.0000   0.0000   0.0000
     0.0000   0.0000   0.0000   0.0000

          k = 0.1650 0.0000 0.0000 (101795 PWs)   bands (ev):

   -21.6105 -20.1300 -18.0776 -17.7152 -16.6979 -14.9293 -14.3340 -13.8834
   -12.2311 -11.7036 -11.2323 -10.3922  -9.7076  -9.6566  -8.5187  -8.4812
    -8.0413  -7.0755  -6.6568  -5.7039  -5.4693  -4.2695  -1.6835  -0.5165
    -0.1556   0.3284   0.6710   0.9463   1.2830   1.4095   1.7050   1.7578
     1.9631   2.0561   2.3865   2.5215   3.0758   3.0816   3.2006   3.4543
     3.5645   3.6161   3.7056   3.7274   4.0201   4.1030   4.4653   4.6972
     4.7228   4.8495   5.2560   5.3826   5.3857   5.6674   5.8684   5.9493
     5.9700   6.0239   6.0978   6.1384

     occupation numbers 
     1.0000   1.0000   1.0000   1.0000   1.0000   1.0000   1.0000   1.0000
     1.0000   1.0000   1.0000   1.0000   1.0000   1.0000   1.0000   1.0000
     1.0000   1.0000   1.0000   1.0000   1.0000   1.0000   0.0000   0.0000
     0.0000   0.0000   0.0000   0.0000   0.0000   0.0000   0.0000   0.0000
     0.0000   0.0000   0.0000   0.0000   0.0000   0.0000   0.0000   0.0000
     0.0000   0.0000   0.0000   0.0000   0.0000   0.0000   0.0000   0.0000
     0.0000   0.0000   0.0000   0.0000   0.0000   0.0000   0.0000   0.0000
     0.0000   0.0000   0.0000   0.0000

          k = 0.1700 0.0000 0.0000 (101777 PWs)   bands (ev):

   -21.6009 -20.1211 -18.0971 -17.7316 -16.7323 -14.9159 -14.2854 -13.9109
   -12.1956 -11.6865 -11.2587 -10.3645  -9.6947  -9.6452  -8.5428  -8.4724
    -8.0309  -7.0931  -6.6758  -5.7088  -5.5013  -4.3089  -1.6480  -0.4674
    -0.1714   0.3413   0.6839   0.9595   1.2975   1.4229   1.7188   1.7712
     1.9766   2.0694   2.3995   2.5348   3.0560   3.0910   3.2139   3.4673
     3.5787   3.6296   3.7192   3.7408   4.0316   4.1163   4.4715   4.7019
     4.7236   4.8604   5.2701   5.3550   5.3724   5.6812   5.8601   5.9648
     5.9811   6.0360   6.0583   6.0788

     occupation numbers 
     1.0000   1.0000   1.0000   1.0000   1.0000   1.0000   1.0000   1.0000
     1.0000   1.0000   1.0000   1.0000   1.0000   1.0000   1.0000   1.0000
     1.0000   1.0000   1.0000   1.0000   1.0000   1.0000   0.0000   0.0000
     0.0000   0.0000   0.0000   0.0000   0.0000   0.0000   0.0000   0.0000
     0.0000   0.0000   0.0000   0.0000   0.0000   0.0000   0.0000   0.0000
     0.0000   0.0000   0.0000   0.0000   0.0000   0.0000   0.0000   0.0000
     0.0000   0.0000   0.0000   0.0000   0.0000   0.0000   0.0000   0.0000
     0.0000   0.0000   0.0000   0.0000

          k = 0.1750 0.0000 0.0000 (101783 PWs)   bands (ev):

   -21.5911 -20.1118 -18.1198 -17.7445 -16.7667 -14.9025 -14.2393 -13.9358
   -12.1600 -11.6693 -11.2848 -10.3366  -9.6817  -9.6335  -8.5671  -8.4638
    -8.0201  -7.1115  -6.6952  -5.7173  -5.5298  -4.3482  -1.6124  -0.4186
    -0.1867   0.3546   0.6972   0.9731   1.3124   1.4367   1.7329   1.7850
     1.9904   2.0831   2.4128   2.5484   3.0299   3.1067   3.2276   3.4807
     3.5932   3.6435   3.7333   3.7547   4.0431   4.1301   4.4766   4.7059
     4.7238   4.8716   5.2846   5.3294   5.3583   5.6953   5.8510   5.9805
     5.9921   6.0177   6.0197   6.0487

     occupation numbers 
     1.0000   1.0000   1.0000   1.0000   1.0000   1.0000   1.0000   1.0000
     1.0000   1.0000   1.0000   1.0000   1.0000   1.0000   1.0000   1.0000
     1.0000   1.0000   1.0000   1.0000   1.0000   1.0000   0.0000   0.0000
     0.0000   0.0000   0.0000   0.0000   0.0000   0.0000   0.0000   0.0000
     0.0000   0.0000   0.0000   0.0000   0.0000   0.0000   0.0000   0.0000
     0.0000   0.0000   0.0000   0.0000   0.0000   0.0000   0.0000   0.0000
     0.0000   0.0000   0.0000   0.0000   0.0000   0.0000   0.0000   0.0000
     0.0000   0.0000   0.0000   0.0000

          k = 0.1800 0.0000 0.0000 (101803 PWs)   bands (ev):

   -21.5810 -20.1023 -18.1455 -17.7541 -16.8013 -14.8891 -14.1980 -13.9556
   -12.1244 -11.6521 -11.3104 -10.3085  -9.6686  -9.6214  -8.5918  -8.4557
    -8.0090  -7.1307  -6.7149  -5.7308  -5.5534  -4.3875  -1.5770  -0.3710
    -0.2006   0.3683   0.7109   0.9872   1.3277   1.4509   1.7474   1.7991
[...]
     0.0000   0.0000   0.0000   0.0000   0.0000   0.0000   0.0000   0.0000
     0.0000   0.0000   0.0000   0.0000

          k = 0.4350 0.0000 0.0000 (101870 PWs)   bands (ev):

   -20.7026 -19.9411 -19.3336 -18.4127 -17.4038 -15.2949 -14.1979 -12.6994
   -11.6604 -10.6260  -9.8418  -9.8176  -9.0953  -8.8857  -8.8553  -8.8024
    -8.5708  -7.9419  -7.7144  -7.0739  -6.2271  -5.4086  -0.9853   0.2000
     1.1830   1.5628   1.8830   2.2263   2.3094   2.5247   2.7158   2.7803
     2.8363   3.0801   3.1136   3.2528   3.2629   3.3524   3.4647   3.6299
     3.7542   3.8009   4.0558   4.0947   4.1521   4.2983   4.3682   4.4867
     4.5123   4.6128   4.6835   4.8436   4.8932   4.9147   5.0372   5.0377
     5.1328   5.2800   5.3960   5.5366

     occupation numbers 
     1.0000   1.0000   1.0000   1.0000   1.0000   1.0000   1.0000   1.0000
     1.0000   1.0000   1.0000   1.0000   1.0000   1.0000   1.0000   1.0000
     1.0000   1.0000   1.0000   1.0000   1.0000   1.0000   0.0000   0.0000
     0.0000   0.0000   0.0000   0.0000   0.0000   0.0000   0.0000   0.0000
     0.0000   0.0000   0.0000   0.0000   0.0000   0.0000   0.0000   0.0000
     0.0000   0.0000   0.0000   0.0000   0.0000   0.0000   0.0000   0.0000
     0.0000   0.0000   0.0000   0.0000   0.0000   0.0000   0.0000   0.0000
     0.0000   0.0000   0.0000   0.0000

          k = 0.4400 0.0000 0.0000 (101858 PWs)   bands (ev):

   -20.6793 -19.9710 -19.3171 -18.4349 -17.3982 -15.3062 -14.1886 -12.7132
   -11.6306 -10.6148  -9.8153  -9.8043  -9.0976  -8.9151  -8.8750  -8.7896
    -8.5423  -7.9625  -7.7500  -7.0507  -6.2564  -5.4062  -0.9919   0.2343
     1.1480   1.5948   1.9146   2.2595   2.3542   2.4909   2.7461   2.8046
     2.8246   3.1079   3.1480   3.2098   3.2974   3.3859   3.4204   3.6377
     3.7343   3.8341   4.0064   4.0509   4.1084   4.2558   4.3253   4.5059
     4.5472   4.5889   4.6990   4.8183   4.9285   4.9491   5.0719   5.0728
     5.1538   5.2617   5.4293   5.4966

     occupation numbers 
     1.0000   1.0000   1.0000   1.0000   1.0000   1.0000   1.0000   1.0000
     1.0000   1.0000   1.0000   1.0000   1.0000   1.0000   1.0000   1.0000
     1.0000   1.0000   1.0000   1.0000   1.0000   1.0000   0.0000   0.0000
     0.0000   0.0000   0.0000   0.0000   0.0000   0.0000   0.0000   0.0000
     0.0000   0.0000   0.0000   0.0000   0.0000   0.0000   0.0000   0.0000
     0.0000   0.0000   0.0000   0.0000   0.0000   0.0000   0.0000   0.0000
     0.0000   0.0000   0.0000   0.0000   0.0000   0.0000   0.0000   0.0000
     0.0000   0.0000   0.0000   0.0000

          k = 0.4450 0.0000 0.0000 (101842 PWs)   bands (ev):

   -20.6559 -20.0004 -19.3012 -18.4561 -17.3930 -15.3167 -14.1799 -12.7261
   -11.6026 -10.6054  -9.8105  -9.7677  -9.1056  -8.9388  -8.8976  -8.7747
    -8.5135  -7.9822  -7.7853  -7.0276  -6.2850  -5.4041  -0.9980   0.2684
     1.1132   1.6271   1.9463   2.2919   2.3988   2.4568   2.7708   2.7785
     2.8692   3.1387   3.1667   3.1828   3.3302   3.3785   3.4201   3.6202
     3.7406   3.8665   3.9570   4.0085   4.0651   4.2127   4.2827   4.4996
     4.5836   4.5913   4.6965   4.8108   4.9641   4.9838   5.1065   5.1084
     5.1752   5.2444   5.4573   5.4597

     occupation numbers 
     1.0000   1.0000   1.0000   1.0000   1.0000   1.0000   1.0000   1.0000
     1.0000   1.0000   1.0000   1.0000   1.0000   1.0000   1.0000   1.0000
     1.0000   1.0000   1.0000   1.0000   1.0000   1.0000   0.0000   0.0000
     0.0000   0.0000   0.0000   0.0000   0.0000   0.0000   0.0000   0.0000
     0.0000   0.0000   0.0000   0.0000   0.0000   0.0000   0.0000   0.0000
     0.0000   0.0000   0.0000   0.0000   0.0000   0.0000   0.0000   0.0000
     0.0000   0.0000   0.0000   0.0000   0.0000   0.0000   0.0000   0.0000
     0.0000   0.0000   0.0000   0.0000

          k = 0.4500 0.0000 0.0000 (101850 PWs)   bands (ev):

   -20.6325 -20.0293 -19.2859 -18.4763 -17.3882 -15.3264 -14.1718 -12.7381
   -11.5765 -10.5977  -9.8033  -9.7321  -9.1202  -8.9557  -8.9211  -8.7597
    -8.4845  -8.0011  -7.8202  -7.0048  -6.3129  -5.4021  -1.0035   0.3022
     1.0787   1.6596   1.9780   2.3213   2.4257   2.4431   2.7359   2.8120
     2.9141   3.1239   3.1713   3.2179   3.3260   3.3745   3.4543   3.5878
     3.7628   3.8953   3.9076   3.9705   4.0223   4.1693   4.2404   4.4723
     4.6154   4.6209   4.6739   4.8237   5.0001   5.0187   5.1406   5.1442
     5.1963   5.2285   5.4189   5.4595

     occupation numbers 
     1.0000   1.0000   1.0000   1.0000   1.0000   1.0000   1.0000   1.0000
     1.0000   1.0000   1.0000   1.0000   1.0000   1.0000   1.0000   1.0000
     1.0000   1.0000   1.0000   1.0000   1.0000   1.0000   0.0000   0.0000
     0.0000   0.0000   0.0000   0.0000   0.0000   0.0000   0.0000   0.0000
     0.0000   0.0000   0.0000   0.0000   0.0000   0.0000   0.0000   0.0000
     0.0000   0.0000   0.0000   0.0000   0.0000   0.0000   0.0000   0.0000
     0.0000   0.0000   0.0000   0.0000   0.0000   0.0000   0.0000   0.0000
     0.0000   0.0000   0.0000   0.0000

          k = 0.4550 0.0000 0.0000 (101846 PWs)   bands (ev):

   -20.6093 -20.0575 -19.2713 -18.4952 -17.3838 -15.3351 -14.1643 -12.7490
   -11.5523 -10.5915  -9.7939  -9.6977  -9.1409  -8.9661  -8.9448  -8.7450
    -8.4553  -8.0190  -7.8548  -6.9825  -6.3398  -5.4003  -1.0086   0.3356
     1.0446   1.6921   2.0098   2.3372   2.4083   2.4871   2.7007   2.8463
     2.9588   3.0816   3.2052   3.2532   3.2853   3.4081   3.4867   3.5526
     3.7906   3.8584   3.8989   3.9582   3.9799   4.1261   4.1984   4.4389
     4.6410   4.6464   4.6589   4.8471   5.0366   5.0537   5.1708   5.1805
     5.2164   5.2167   5.3823   5.4211

     occupation numbers 
     1.0000   1.0000   1.0000   1.0000   1.0000   1.0000   1.0000   1.0000
     1.0000   1.0000   1.0000   1.0000   1.0000   1.0000   1.0000   1.0000
     1.0000   1.0000   1.0000   1.0000   1.0000   1.0000   0.0000   0.0000
     0.0000   0.0000   0.0000   0.0000   0.0000   0.0000   0.0000   0.0000
     0.0000   0.0000   0.0000   0.0000   0.0000   0.0000   0.0000   0.0000
     0.0000   0.0000   0.0000   0.0000   0.0000   0.0000   0.0000   0.0000
     0.0000   0.0000   0.0000   0.0000   0.0000   0.0000   0.0000   0.0000
     0.0000   0.0000   0.0000   0.0000

          k = 0.4600 0.0000 0.0000 (101824 PWs)   bands (ev):

   -20.5862 -20.0850 -19.2576 -18.5128 -17.3798 -15.3430 -14.1575 -12.7589
   -11.5301 -10.5868  -9.7824  -9.6647  -9.1660  -8.9716  -8.9682  -8.7311
    -8.4260  -8.0356  -7.8889  -6.9608  -6.3656  -5.3987  -1.0131   0.3686
     1.0110   1.7247   2.0416   2.3227   2.4219   2.5308   2.6655   2.8809
     3.0027   3.0399   3.2401   3.2438   3.2889   3.4442   3.4961   3.5393
     3.8092   3.8204   3.8661   3.9380   3.9831   4.0831   4.1568   4.4040
     4.6043   4.6797   4.6974   4.8747   5.0734   5.0886   5.1796   5.2171
     5.2255   5.2344   5.3483   5.3788

     occupation numbers 
     1.0000   1.0000   1.0000   1.0000   1.0000   1.0000   1.0000   1.0000
     1.0000   1.0000   1.0000   1.0000   1.0000   1.0000   1.0000   1.0000
     1.0000   1.0000   1.0000   1.0000   1.0000   1.0000   0.0000   0.0000
     0.0000   0.0000   0.0000   0.0000   0.0000   0.0000   0.0000   0.0000
     0.0000   0.0000   0.0000   0.0000   0.0000   0.0000   0.0000   0.0000
     0.0000   0.0000   0.0000   0.0000   0.0000   0.0000   0.0000   0.0000
     0.0000   0.0000   0.0000   0.0000   0.0000   0.0000   0.0000   0.0000
     0.0000   0.0000   0.0000   0.0000

          k = 0.4650 0.0000 0.0000 (101808 PWs)   bands (ev):

   -20.5635 -20.1117 -19.2450 -18.5289 -17.3763 -15.3500 -14.1514 -12.7678
   -11.5102 -10.5833  -9.7694  -9.6333  -9.1933  -8.9914  -8.9737  -8.7181
    -8.3967  -8.0509  -7.9225  -6.9399  -6.3901  -5.3973  -1.0171   0.4008
     0.9782   1.7572   2.0731   2.2929   2.4517   2.5743   2.6307   2.9148
     2.9997   3.0441   3.2049   3.2757   3.3246   3.4629   3.4810   3.5683
     3.7603   3.8260   3.8510   3.8967   4.0159   4.0404   4.1156   4.3688
     4.5663   4.7142   4.7363   4.9041   5.1106   5.1228   5.1665   5.2490
     5.2524   5.2540   5.3203   5.3370

     occupation numbers 
     1.0000   1.0000   1.0000   1.0000   1.0000   1.0000   1.0000   1.0000
     1.0000   1.0000   1.0000   1.0000   1.0000   1.0000   1.0000   1.0000
     1.0000   1.0000   1.0000   1.0000   1.0000   1.0000   0.0000   0.0000
     0.0000   0.0000   0.0000   0.0000   0.0000   0.0000   0.0000   0.0000
     0.0000   0.0000   0.0000   0.0000   0.0000   0.0000   0.0000   0.0000
     0.0000   0.0000   0.0000   0.0000   0.0000   0.0000   0.0000   0.0000
     0.0000   0.0000   0.0000   0.0000   0.0000   0.0000   0.0000   0.0000
     0.0000   0.0000   0.0000   0.0000

          k = 0.4700 0.0000 0.0000 (101820 PWs)   bands (ev):

   -20.5414 -20.1372 -19.2336 -18.5433 -17.3732 -15.3561 -14.1461 -12.7755
   -11.4925 -10.5810  -9.7551  -9.6040  -9.2211  -9.0135  -8.9742  -8.7063
    -8.3673  -8.0647  -7.9555  -6.9201  -6.4130  -5.3960  -1.0206   0.4321
     0.9465   1.7895   2.1041   2.2598   2.4858   2.5967   2.6176   2.9371
     2.9720   3.0757   3.1761   3.3120   3.3605   3.4238   3.5183   3.6036
     3.7116   3.7847   3.8561   3.8818   3.9980   4.0504   4.0749   4.3339
     4.5278   4.7493   4.7757   4.9343   5.1474   5.1481   5.1547   5.2582
     5.2652   5.2913   5.2980   5.3146

     occupation numbers 
     1.0000   1.0000   1.0000   1.0000   1.0000   1.0000   1.0000   1.0000
     1.0000   1.0000   1.0000   1.0000   1.0000   1.0000   1.0000   1.0000
     1.0000   1.0000   1.0000   1.0000   1.0000   1.0000   0.0000   0.0000
     0.0000   0.0000   0.0000   0.0000   0.0000   0.0000   0.0000   0.0000
     0.0000   0.0000   0.0000   0.0000   0.0000   0.0000   0.0000   0.0000
     0.0000   0.0000   0.0000   0.0000   0.0000   0.0000   0.0000   0.0000
     0.0000   0.0000   0.0000   0.0000   0.0000   0.0000   0.0000   0.0000
     0.0000   0.0000   0.0000   0.0000

          k = 0.4750 0.0000 0.0000 (101830 PWs)   bands (ev):

   -20.5203 -20.1612 -19.2235 -18.5560 -17.3706 -15.3612 -14.1415 -12.7821
   -11.4774 -10.5794  -9.7404  -9.5773  -9.2479  -9.0342  -8.9737  -8.6959
    -8.3382  -8.0769  -7.9878  -6.9019  -6.4339  -5.3950  -1.0236   0.4620
     0.9162   1.8212   2.1342   2.2265   2.5215   2.5640   2.6607   2.9096
     2.9950   3.0755   3.1793   3.3488   3.3841   3.3962   3.5561   3.6402
     3.6634   3.7434   3.8163   3.9118   3.9560   4.0352   4.0853   4.2996
     4.4895   4.7848   4.8155   4.9647   5.1244   5.1776   5.1861   5.2515
     5.2599   5.2685   5.3290   5.3417

     occupation numbers 
     1.0000   1.0000   1.0000   1.0000   1.0000   1.0000   1.0000   1.0000
     1.0000   1.0000   1.0000   1.0000   1.0000   1.0000   1.0000   1.0000
     1.0000   1.0000   1.0000   1.0000   1.0000   1.0000   0.0000   0.0000
     0.0000   0.0000   0.0000   0.0000   0.0000   0.0000   0.0000   0.0000
     0.0000   0.0000   0.0000   0.0000   0.0000   0.0000   0.0000   0.0000
     0.0000   0.0000   0.0000   0.0000   0.0000   0.0000   0.0000   0.0000
     0.0000   0.0000   0.0000   0.0000   0.0000   0.0000   0.0000   0.0000
     0.0000   0.0000   0.0000   0.0000

          k = 0.4800 0.0000 0.0000 (101818 PWs)   bands (ev):

   -20.5006 -20.1832 -19.2150 -18.5666 -17.3684 -15.3655 -14.1377 -12.7875
   -11.4648 -10.5785  -9.7261  -9.5537  -9.2725  -9.0529  -8.9729  -8.6870
    -8.3097  -8.0871  -8.0189  -6.8857  -6.4524  -5.3941  -1.0260   0.4898
     0.8881   1.8518   2.1629   2.1941   2.5331   2.5580   2.7036   2.8706
     3.0300   3.0457   3.2119   3.3445   3.3862   3.4314   3.5943   3.6159
     3.6773   3.7023   3.7778   3.9143   3.9382   3.9989   4.1202   4.2665
     4.4519   4.8207   4.8556   4.9947   5.0975   5.1722   5.2244   5.2354
     5.2532   5.2680   5.3670   5.3771

     occupation numbers 
     1.0000   1.0000   1.0000   1.0000   1.0000   1.0000   1.0000   1.0000
     1.0000   1.0000   1.0000   1.0000   1.0000   1.0000   1.0000   1.0000
     1.0000   1.0000   1.0000   1.0000   1.0000   1.0000   0.0000   0.0000
     0.0000   0.0000   0.0000   0.0000   0.0000   0.0000   0.0000   0.0000
     0.0000   0.0000   0.0000   0.0000   0.0000   0.0000   0.0000   0.0000
     0.0000   0.0000   0.0000   0.0000   0.0000   0.0000   0.0000   0.0000
     0.0000   0.0000   0.0000   0.0000   0.0000   0.0000   0.0000   0.0000
     0.0000   0.0000   0.0000   0.0000

          k = 0.4850 0.0000 0.0000 (101818 PWs)   bands (ev):

   -20.4831 -20.2025 -19.2081 -18.5750 -17.3667 -15.3688 -14.1347 -12.7918
   -11.4549 -10.5780  -9.7130  -9.5339  -9.2936  -9.0688  -8.9720  -8.6799
    -8.2823  -8.0953  -8.0482  -6.8720  -6.4677  -5.3934  -1.0279   0.5145
     0.8631   1.8806   2.1639   2.1891   2.5052   2.5951   2.7460   2.8311
     3.0075   3.0663   3.2525   3.3052   3.4241   3.4655   3.5697   3.6329
     3.6615   3.7148   3.7411   3.8730   3.9396   3.9867   4.1542   4.2354
     4.4156   4.8567   4.8958   5.0234   5.0674   5.1412   5.2229   5.2396
     5.2630   5.2934   5.4054   5.4146

     occupation numbers 
     1.0000   1.0000   1.0000   1.0000   1.0000   1.0000   1.0000   1.0000
     1.0000   1.0000   1.0000   1.0000   1.0000   1.0000   1.0000   1.0000
     1.0000   1.0000   1.0000   1.0000   1.0000   1.0000   0.0000   0.0000
     0.0000   0.0000   0.0000   0.0000   0.0000   0.0000   0.0000   0.0000
     0.0000   0.0000   0.0000   0.0000   0.0000   0.0000   0.0000   0.0000
     0.0000   0.0000   0.0000   0.0000   0.0000   0.0000   0.0000   0.0000
     0.0000   0.0000   0.0000   0.0000   0.0000   0.0000   0.0000   0.0000
     0.0000   0.0000   0.0000   0.0000

          k = 0.4900 0.0000 0.0000 (101842 PWs)   bands (ev):

   -20.4691 -20.2179 -19.2031 -18.5812 -17.3655 -15.3712 -14.1326 -12.7948
   -11.4477 -10.5778  -9.7024  -9.5189  -9.3100  -9.0810  -8.9713  -8.6747
    -8.2575  -8.1013  -8.0744  -6.8616  -6.4794  -5.3929  -1.0292   0.5346
     0.8428   1.9057   2.1377   2.2111   2.4819   2.6324   2.7877   2.7919
     2.9675   3.1026   3.2670   3.2931   3.4624   3.4968   3.5263   3.6211
     3.6718   3.7079   3.7527   3.8321   3.9069   4.0060   4.1862   4.2077
     4.3821   4.8928   4.9362   5.0349   5.0493   5.1032   5.2145   5.2226
     5.3020   5.3265   5.4441   5.4473

     occupation numbers 
     1.0000   1.0000   1.0000   1.0000   1.0000   1.0000   1.0000   1.0000
     1.0000   1.0000   1.0000   1.0000   1.0000   1.0000   1.0000   1.0000
     1.0000   1.0000   1.0000   1.0000   1.0000   1.0000   0.0000   0.0000
     0.0000   0.0000   0.0000   0.0000   0.0000   0.0000   0.0000   0.0000
     0.0000   0.0000   0.0000   0.0000   0.0000   0.0000   0.0000   0.0000
     0.0000   0.0000   0.0000   0.0000   0.0000   0.0000   0.0000   0.0000
     0.0000   0.0000   0.0000   0.0000   0.0000   0.0000   0.0000   0.0000
     0.0000   0.0000   0.0000   0.0000

          k = 0.4950 0.0000 0.0000 (101850 PWs)   bands (ev):

   -20.4597 -20.2281 -19.2001 -18.5849 -17.3648 -15.3726 -14.1313 -12.7967
   -11.4434 -10.5778  -9.6954  -9.5095  -9.3205  -9.0888  -8.9708  -8.6715
    -8.2384  -8.1049  -8.0944  -6.8550  -6.4867  -5.3926  -1.0300   0.5480
     0.8293   1.9240   2.1187   2.2264   2.4659   2.6691   2.7540   2.8268
     2.9291   3.1370   3.2314   3.3280   3.4901   3.5009   3.5217   3.5813
     3.6820   3.7111   3.7906   3.7916   3.8693   4.0245   4.1870   4.2123
     4.3550   4.9286   4.9758   5.0009   5.0641   5.0691   5.2074   5.2097
     5.3410   5.3602   5.4232   5.4505

     occupation numbers 
     1.0000   1.0000   1.0000   1.0000   1.0000   1.0000   1.0000   1.0000
     1.0000   1.0000   1.0000   1.0000   1.0000   1.0000   1.0000   1.0000
     1.0000   1.0000   1.0000   1.0000   1.0000   1.0000   0.0000   0.0000
     0.0000   0.0000   0.0000   0.0000   0.0000   0.0000   0.0000   0.0000
     0.0000   0.0000   0.0000   0.0000   0.0000   0.0000   0.0000   0.0000
     0.0000   0.0000   0.0000   0.0000   0.0000   0.0000   0.0000   0.0000
     0.0000   0.0000   0.0000   0.0000   0.0000   0.0000   0.0000   0.0000
     0.0000   0.0000   0.0000   0.0000

          k = 0.5000 0.0000 0.0000 (101844 PWs)   bands (ev):

   -20.4564 -20.2316 -19.1990 -18.5862 -17.3645 -15.3730 -14.1309 -12.7973
   -11.4420 -10.5778  -9.6930  -9.5062  -9.3241  -9.0915  -8.9706  -8.6704
    -8.2308  -8.1061  -8.1023  -6.8527  -6.4892  -5.3925  -1.0303   0.5528
     0.8245   1.9309   2.1116   2.2319   2.4600   2.6945   2.7282   2.8500
     2.9061   3.1573   3.2108   3.3439   3.4738   3.5320   3.5337   3.5481
     3.6713   3.7464   3.7559   3.8220   3.8379   4.0321   4.1788   4.2235
     4.3434   4.9587   4.9713   5.0039   5.0360   5.0770   5.2009   5.2081
     5.3728   5.3815   5.3910   5.4282

     occupation numbers 
     1.0000   1.0000   1.0000   1.0000   1.0000   1.0000   1.0000   1.0000
     1.0000   1.0000   1.0000   1.0000   1.0000   1.0000   1.0000   1.0000
     1.0000   1.0000   1.0000   1.0000   1.0000   1.0000   0.0000   0.0000
     0.0000   0.0000   0.0000   0.0000   0.0000   0.0000   0.0000   0.0000
     0.0000   0.0000   0.0000   0.0000   0.0000   0.0000   0.0000   0.0000
     0.0000   0.0000   0.0000   0.0000   0.0000   0.0000   0.0000   0.0000
     0.0000   0.0000   0.0000   0.0000   0.0000   0.0000   0.0000   0.0000
     0.0000   0.0000   0.0000   0.0000

     highest occupied, lowest unoccupied level (ev):    -3.1427   -2.7377

     Writing output data file ./5AGNR.save/
 
     init_run     :      1.25s CPU      1.44s WALL (       1 calls)
     electrons    :   2395.55s CPU   2506.52s WALL (       1 calls)

     Called by init_run:
     wfcinit      :      0.00s CPU      0.00s WALL (       1 calls)
     wfcinit:atom :      0.43s CPU      0.46s WALL (     101 calls)
     wfcinit:wfcr :     37.23s CPU     39.83s WALL (     101 calls)
     potinit      :      0.20s CPU      0.25s WALL (       1 calls)
     hinit0       :      0.43s CPU      0.51s WALL (       1 calls)

     Called by electrons:
     c_bands      :   2395.55s CPU   2506.50s WALL (       1 calls)
     v_of_rho     :      0.07s CPU      0.09s WALL (       1 calls)
     v_h          :      0.01s CPU      0.01s WALL (       1 calls)
     v_xc         :      0.07s CPU      0.08s WALL (       1 calls)
     newd         :      0.05s CPU      0.08s WALL (       1 calls)

     Called by c_bands:
     init_us_2    :      0.46s CPU      0.50s WALL (     101 calls)
     cegterg      :   2353.82s CPU   2461.97s WALL (     479 calls)

     Called by sum_band:

     Called by *egterg:
     cdiaghg      :    140.50s CPU    142.39s WALL (    8778 calls)
     cegterg:over :    222.02s CPU    223.95s WALL (    8677 calls)
     cegterg:upda :    260.68s CPU    262.83s WALL (    8677 calls)
     cegterg:last :    520.59s CPU    525.55s WALL (    4538 calls)
     cdiaghg:chol :      6.36s CPU      6.48s WALL (    8778 calls)
     cdiaghg:inve :      4.50s CPU      4.57s WALL (    8778 calls)
     cdiaghg:para :      7.90s CPU      8.60s WALL (   17556 calls)
     h_psi        :   1126.94s CPU   1213.08s WALL (    9257 calls)
     s_psi        :     59.12s CPU     59.52s WALL (    9257 calls)
     g_psi        :     12.05s CPU     12.20s WALL (    8677 calls)

     Called by h_psi:
     h_psi:calbec :     71.15s CPU     73.30s WALL (    9257 calls)
     vloc_psi     :    981.38s CPU   1059.78s WALL (    9257 calls)
     add_vuspsi   :     62.00s CPU     62.56s WALL (    9257 calls)

     General routines
     calbec       :     71.07s CPU     73.24s WALL (    9257 calls)
     fft          :      0.05s CPU      0.13s WALL (      11 calls)
     fftw         :    890.88s CPU    967.77s WALL (  473092 calls)
 
     Parallel routines
     fft_scatt_xy :     96.43s CPU     97.74s WALL (  473103 calls)
     fft_scatt_yz :    454.79s CPU    523.10s WALL (  473103 calls)
 
     PWSCF        :  40m 7.17s CPU  44m 6.68s WALL

 
   This run was terminated on:  14:12:34   9Feb2022            

=------------------------------------------------------------------------------=
   JOB DONE.
=------------------------------------------------------------------------------=
