
     Program PHONON v.6.7MaX starts on  9Feb2022 at 14:42:38 

     This program is part of the open-source Quantum ESPRESSO suite
     for quantum simulation of materials; please cite
         "P. Giannozzi et al., J. Phys.:Condens. Matter 21 395502 (2009);
         "P. Giannozzi et al., J. Phys.:Condens. Matter 29 465901 (2017);
          URL http://www.quantum-espresso.org", 
     in publications or presentations arising from this work. More details at
     http://www.quantum-espresso.org/quote

     Parallel version (MPI), running on    30 processors

     MPI processes distributed on     1 nodes
     R & G space division:  proc/nbgrp/npool/nimage =      30
     Waiting for input...
     Reading input from standard input

     Reading xml data from directory:

     ./5AGNR.save/
     Message from routine qexsd_readschema :
     input info not found or not readable in xml file
     file C.pbe-rrkjus.UPF: wavefunction(s)  2S 2P renormalized
     file H.pbe-rrkjus.UPF: wavefunction(s)  1S renormalized

     IMPORTANT: XC functional enforced from input :
     Exchange-correlation= PBE
                           (   1   4   3   4   0   0   0)
     Any further DFT definition will be discarded
     Please, verify this is what you really want

 
     Parallelization info
     --------------------
     sticks:   dense  smooth     PW     G-vecs:    dense   smooth      PW
     Min         178     178     64                17638    17638    3824
     Max         179     179     65                17643    17643    3831
     Sum        5363    5363   1925               529227   529227  114757
 

     negative rho (up, down):  5.115E-04 0.000E+00
     Reading collected, re-writing distributed wavefunctions


     Dynamical matrices for ( 4, 1, 1)  uniform grid of q-points
     (   3 q-points):
       N         xq(1)         xq(2)         xq(3) 
       1   0.000000000   0.000000000   0.000000000
       2   0.250000000   0.000000000   0.000000000
       3  -0.500000000   0.000000000   0.000000000

     Calculation of q =    0.0000000   0.0000000   0.0000000

                                                                                

     bravais-lattice index     =            8
     lattice parameter (alat)  =       8.1391  a.u.
     unit-cell volume          =    7063.0417 (a.u.)^3
     number of atoms/cell      =           14
     number of atomic types    =            2
     kinetic-energy cut-off    =      90.0000  Ry
     charge density cut-off    =     270.0000  Ry
     convergence threshold     =      1.0E-18
     beta                      =       0.7000
     number of iterations used =            4
     Exchange-correlation= PBE
                           (   1   4   3   4   0   0   0)


     celldm(1)=    8.13909  celldm(2)=    3.76129  celldm(3)=    3.48280
     celldm(4)=    0.00000  celldm(5)=    0.00000  celldm(6)=    0.00000

     crystal axes: (cart. coord. in units of alat)
               a(1) = (  1.0000  0.0000  0.0000 )  
               a(2) = (  0.0000  3.7613  0.0000 )  
               a(3) = (  0.0000  0.0000  3.4828 )  

     reciprocal axes: (cart. coord. in units 2 pi/alat)
               b(1) = (  1.0000  0.0000  0.0000 )  
               b(2) = (  0.0000  0.2659  0.0000 )  
               b(3) = (  0.0000  0.0000  0.2871 )  


     Atoms inside the unit cell: 

     Cartesian axes

     site n.  atom      mass           positions (alat units)
        1     C   12.0107   tau(    1) = (    0.65897    1.17234    1.74140  )
        2     C   12.0107   tau(    2) = (    0.83347    1.45119    1.74140  )
        3     C   12.0107   tau(    3) = (    0.34103    1.17234    1.74140  )
        4     C   12.0107   tau(    4) = (    0.66690    1.73740    1.74140  )
        5     C   12.0107   tau(    5) = (    0.83347    2.02359    1.74140  )
        6     C   12.0107   tau(    6) = (    0.16653    1.45119    1.74140  )
        7     C   12.0107   tau(    7) = (    0.33310    1.73740    1.74140  )
        8     C   12.0107   tau(    8) = (    0.65898    2.30244    1.74140  )
        9     C   12.0107   tau(    9) = (    0.16653    2.02359    1.74140  )
       10     C   12.0107   tau(   10) = (    0.34102    2.30244    1.74140  )
       11     H    1.0079   tau(   11) = (    0.77789    0.94966    1.74140  )
       12     H    1.0079   tau(   12) = (    0.22211    0.94966    1.74140  )
       13     H    1.0079   tau(   13) = (    0.77800    2.52502    1.74140  )
       14     H    1.0079   tau(   14) = (    0.22200    2.52502    1.74140  )

     Computing dynamical matrix for 
                    q = (   0.0000000   0.0000000   0.0000000 )
 
      5 Sym.Ops. (with q -> -q+G )


     G cutoff =  453.0595  (  17641 G-vectors)     FFT grid: ( 45,162,150)
     number of k points=    21

     PseudoPot. # 1 for C  read from file:
     ../Pseudo/C.pbe-rrkjus.UPF
     MD5 check sum: 00fb224312de0c5b6853bd333518df6f
     Pseudo is Ultrasoft, Zval =  4.0
     Generated by new atomic code, or converted to UPF format
     Using radial grid of  627 points,  4 beta functions with: 
                l(1) =   0
                l(2) =   0
                l(3) =   1
                l(4) =   1
     Q(r) pseudized with 0 coefficients 


     PseudoPot. # 2 for H  read from file:
     ../Pseudo/H.pbe-rrkjus.UPF
     MD5 check sum: 7cc9d459525c9a0585f487a71c3c9563
     Pseudo is Ultrasoft, Zval =  1.0
     Generated by new atomic code, or converted to UPF format
     Using radial grid of 1061 points,  2 beta functions with: 
                l(1) =   0
                l(2) =   0
     Q(r) pseudized with 0 coefficients 


     Mode symmetry, C_2v (mm2)  point group:


     Electric field:
     Dielectric constant
     Born effective charges in two ways 


     Atomic displacements:
     There are   42 irreducible representations

     Representation     1      1 modes -  To be done

     Representation     2      1 modes -  To be done

     Representation     3      1 modes -  To be done

     Representation     4      1 modes -  To be done

     Representation     5      1 modes -  To be done

     Representation     6      1 modes -  To be done

     Representation     7      1 modes -  To be done

     Representation     8      1 modes -  To be done

     Representation     9      1 modes -  To be done

     Representation    10      1 modes -  To be done

     Representation    11      1 modes -  To be done

     Representation    12      1 modes -  To be done

     Representation    13      1 modes -  To be done

     Representation    14      1 modes -  To be done

     Representation    15      1 modes -  To be done

     Representation    16      1 modes -  To be done

     Representation    17      1 modes -  To be done

     Representation    18      1 modes -  To be done

     Representation    19      1 modes -  To be done

     Representation    20      1 modes -  To be done

     Representation    21      1 modes -  To be done

     Representation    22      1 modes -  To be done

     Representation    23      1 modes -  To be done

     Representation    24      1 modes -  To be done

     Representation    25      1 modes -  To be done

     Representation    26      1 modes -  To be done

     Representation    27      1 modes -  To be done

     Representation    28      1 modes -  To be done

     Representation    29      1 modes -  To be done

     Representation    30      1 modes -  To be done

     Representation    31      1 modes -  To be done

     Representation    32      1 modes -  To be done

     Representation    33      1 modes -  To be done

     Representation    34      1 modes -  To be done

     Representation    35      1 modes -  To be done

     Representation    36      1 modes -  To be done

     Representation    37      1 modes -  To be done

     Representation    38      1 modes -  To be done

     Representation    39      1 modes -  To be done

     Representation    40      1 modes -  To be done

     Representation    41      1 modes -  To be done

     Representation    42      1 modes -  To be done



     Alpha used in Ewald sum =   2.5000
     PHONON       :   1m43.68s CPU   1m48.43s WALL


     Electric Fields Calculation

      iter #   1 total cpu time :   407.5 secs   av.it.:   6.1
      thresh= 1.000E-02 alpha_mix =  0.700 |ddv_scf|^2 =  2.181E-06

      iter #   2 total cpu time :   538.3 secs   av.it.:  11.1
      thresh= 1.477E-04 alpha_mix =  0.700 |ddv_scf|^2 =  5.316E-06

      iter #   3 total cpu time :   658.2 secs   av.it.:  10.0
      thresh= 2.306E-04 alpha_mix =  0.700 |ddv_scf|^2 =  1.255E-07

      iter #   4 total cpu time :   785.2 secs   av.it.:  10.8
      thresh= 3.543E-05 alpha_mix =  0.700 |ddv_scf|^2 =  3.602E-09

      iter #   5 total cpu time :   920.6 secs   av.it.:  11.7
      thresh= 6.001E-06 alpha_mix =  0.700 |ddv_scf|^2 =  1.604E-09

      iter #   6 total cpu time :  1049.7 secs   av.it.:  10.9
      thresh= 4.006E-06 alpha_mix =  0.700 |ddv_scf|^2 =  2.096E-10

      iter #   7 total cpu time :  1180.7 secs   av.it.:  11.2
      thresh= 1.448E-06 alpha_mix =  0.700 |ddv_scf|^2 =  2.911E-11

      iter #   8 total cpu time :  1308.2 secs   av.it.:  10.8
      thresh= 5.395E-07 alpha_mix =  0.700 |ddv_scf|^2 =  1.860E-12

      iter #   9 total cpu time :  1441.1 secs   av.it.:  11.3
      thresh= 1.364E-07 alpha_mix =  0.700 |ddv_scf|^2 =  2.559E-13

      iter #  10 total cpu time :  1571.1 secs   av.it.:  11.1
      thresh= 5.059E-08 alpha_mix =  0.700 |ddv_scf|^2 =  1.861E-14

      iter #  11 total cpu time :  1706.9 secs   av.it.:  11.7
      thresh= 1.364E-08 alpha_mix =  0.700 |ddv_scf|^2 =  7.975E-15

      iter #  12 total cpu time :  1834.6 secs   av.it.:  10.8
      thresh= 8.930E-09 alpha_mix =  0.700 |ddv_scf|^2 =  1.353E-15

      iter #  13 total cpu time :  1966.2 secs   av.it.:  11.2
      thresh= 3.678E-09 alpha_mix =  0.700 |ddv_scf|^2 =  1.188E-16

      iter #  14 total cpu time :  2091.2 secs   av.it.:  10.5
      thresh= 1.090E-09 alpha_mix =  0.700 |ddv_scf|^2 =  2.291E-17

      iter #  15 total cpu time :  2225.4 secs   av.it.:  11.5
      thresh= 4.787E-10 alpha_mix =  0.700 |ddv_scf|^2 =  1.856E-17

      iter #  16 total cpu time :  2351.4 secs   av.it.:  10.7
      thresh= 4.308E-10 alpha_mix =  0.700 |ddv_scf|^2 =  2.191E-19

     End of electric fields calculation

          Dielectric constant in cartesian axis 

          (      11.818244791       0.000000000       0.000000000 )
          (       0.000000000       1.235573328       0.000000000 )
          (       0.000000000       0.000000000       1.086084958 )

          Effective charges (d Force / dE) in cartesian axis

           atom      1   C  
      Ex  (       -0.17053        2.12835        0.00000 )
      Ey  (       -0.04767        0.06615        0.00000 )
      Ez  (        0.00000        0.00000       -0.11729 )
           atom      2   C  
      Ex  (       -0.62877        0.83495        0.00000 )
      Ey  (        0.15653       -0.01854        0.00000 )
      Ez  (        0.00000        0.00000        0.00275 )
           atom      3   C  
      Ex  (       -0.17053       -2.12835        0.00000 )
      Ey  (        0.04767        0.06615        0.00000 )
      Ez  (        0.00000        0.00000       -0.11729 )
           atom      4   C  
      Ex  (        1.37341        0.00173        0.00000 )
      Ey  (       -0.00007       -0.01537        0.00000 )
      Ez  (        0.00000        0.00000        0.00783 )
           atom      5   C  
      Ex  (       -0.62878       -0.83085        0.00000 )
      Ey  (       -0.15642       -0.01845        0.00000 )
      Ez  (        0.00000        0.00000        0.00272 )
           atom      6   C  
      Ex  (       -0.62877       -0.83495        0.00000 )
      Ey  (       -0.15653       -0.01854        0.00000 )
      Ez  (        0.00000        0.00000        0.00275 )
           atom      7   C  
      Ex  (        1.37341       -0.00173        0.00000 )
      Ey  (        0.00007       -0.01537        0.00000 )
      Ez  (        0.00000        0.00000        0.00783 )
           atom      8   C  
      Ex  (       -0.17131       -2.13371        0.00000 )
      Ey  (        0.04769        0.06578        0.00000 )
      Ez  (        0.00000        0.00000       -0.11725 )
           atom      9   C  
      Ex  (       -0.62878        0.83085        0.00000 )
      Ey  (        0.15642       -0.01845        0.00000 )
      Ez  (        0.00000        0.00000        0.00272 )
           atom     10   C  
      Ex  (       -0.17131        2.13371        0.00000 )
      Ey  (       -0.04769        0.06578        0.00000 )
      Ez  (        0.00000        0.00000       -0.11725 )
           atom     11   H  
      Ex  (        0.11052       -0.04173        0.00000 )
      Ey  (        0.09212       -0.04029        0.00000 )
      Ez  (        0.00000        0.00000        0.11102 )
           atom     12   H  
      Ex  (        0.11052        0.04173        0.00000 )
      Ey  (       -0.09212       -0.04029        0.00000 )
      Ez  (        0.00000        0.00000        0.11102 )
           atom     13   H  
      Ex  (        0.11093        0.04157        0.00000 )
      Ey  (       -0.09227       -0.04010        0.00000 )
      Ez  (        0.00000        0.00000        0.11104 )
           atom     14   H  
      Ex  (        0.11093       -0.04157        0.00000 )
      Ey  (        0.09227       -0.04010        0.00000 )
      Ez  (        0.00000        0.00000        0.11104 )


     Representation #   1 mode #   1

     Self-consistent Calculation

      iter #   1 total cpu time :  2850.6 secs   av.it.:   5.1
      thresh= 1.000E-02 alpha_mix =  0.700 |ddv_scf|^2 =  1.701E-08

      iter #   2 total cpu time :  2897.9 secs   av.it.:  12.1
      thresh= 1.304E-05 alpha_mix =  0.700 |ddv_scf|^2 =  1.364E-08

      iter #   3 total cpu time :  2943.9 secs   av.it.:  11.3
      thresh= 1.168E-05 alpha_mix =  0.700 |ddv_scf|^2 =  1.810E-09

      iter #   4 total cpu time :  2986.2 secs   av.it.:  10.4
      thresh= 4.255E-06 alpha_mix =  0.700 |ddv_scf|^2 =  4.601E-10

      iter #   5 total cpu time :  3029.4 secs   av.it.:  10.6
      thresh= 2.145E-06 alpha_mix =  0.700 |ddv_scf|^2 =  1.804E-11

      iter #   6 total cpu time :  3074.3 secs   av.it.:  11.2
      thresh= 4.247E-07 alpha_mix =  0.700 |ddv_scf|^2 =  4.233E-12

      iter #   7 total cpu time :  3118.8 secs   av.it.:  11.1
      thresh= 2.057E-07 alpha_mix =  0.700 |ddv_scf|^2 =  2.314E-12

      iter #   8 total cpu time :  3161.0 secs   av.it.:  10.4
      thresh= 1.521E-07 alpha_mix =  0.700 |ddv_scf|^2 =  5.845E-14

      iter #   9 total cpu time :  3205.9 secs   av.it.:  11.2
      thresh= 2.418E-08 alpha_mix =  0.700 |ddv_scf|^2 =  6.600E-15

      iter #  10 total cpu time :  3251.1 secs   av.it.:  11.3
      thresh= 8.124E-09 alpha_mix =  0.700 |ddv_scf|^2 =  5.143E-16

      iter #  11 total cpu time :  3296.7 secs   av.it.:  11.4
      thresh= 2.268E-09 alpha_mix =  0.700 |ddv_scf|^2 =  3.886E-16

      iter #  12 total cpu time :  3340.6 secs   av.it.:  10.9
      thresh= 1.971E-09 alpha_mix =  0.700 |ddv_scf|^2 =  5.582E-18

      iter #  13 total cpu time :  3385.3 secs   av.it.:  11.2
      thresh= 2.363E-10 alpha_mix =  0.700 |ddv_scf|^2 =  2.722E-18

      iter #  14 total cpu time :  3429.1 secs   av.it.:  10.9
      thresh= 1.650E-10 alpha_mix =  0.700 |ddv_scf|^2 =  6.322E-19

     End of self-consistent calculation

     Convergence has been achieved 


     Representation #   2 mode #   2

     Self-consistent Calculation

      iter #   1 total cpu time :  3459.7 secs   av.it.:   3.5
      thresh= 1.000E-02 alpha_mix =  0.700 |ddv_scf|^2 =  8.470E-10

      iter #   2 total cpu time :  3506.5 secs   av.it.:  11.7
      thresh= 2.910E-06 alpha_mix =  0.700 |ddv_scf|^2 =  1.633E-09

      iter #   3 total cpu time :  3549.2 secs   av.it.:  10.3
      thresh= 4.040E-06 alpha_mix =  0.700 |ddv_scf|^2 =  5.237E-11

      iter #   4 total cpu time :  3594.5 secs   av.it.:  11.2
      thresh= 7.237E-07 alpha_mix =  0.700 |ddv_scf|^2 =  2.206E-11

      iter #   5 total cpu time :  3639.0 secs   av.it.:  11.0
      thresh= 4.697E-07 alpha_mix =  0.700 |ddv_scf|^2 =  8.325E-12

      iter #   6 total cpu time :  3681.0 secs   av.it.:  10.3
      thresh= 2.885E-07 alpha_mix =  0.700 |ddv_scf|^2 =  5.250E-13

      iter #   7 total cpu time :  3726.4 secs   av.it.:  11.2
      thresh= 7.246E-08 alpha_mix =  0.700 |ddv_scf|^2 =  1.249E-13

      iter #   8 total cpu time :  3770.1 secs   av.it.:  10.7
      thresh= 3.534E-08 alpha_mix =  0.700 |ddv_scf|^2 =  4.401E-15

      iter #   9 total cpu time :  3816.0 secs   av.it.:  11.2
      thresh= 6.634E-09 alpha_mix =  0.700 |ddv_scf|^2 =  4.183E-16

      iter #  10 total cpu time :  3861.8 secs   av.it.:  11.4
      thresh= 2.045E-09 alpha_mix =  0.700 |ddv_scf|^2 =  3.559E-17

      iter #  11 total cpu time :  3907.0 secs   av.it.:  11.3
      thresh= 5.966E-10 alpha_mix =  0.700 |ddv_scf|^2 =  1.250E-17

      iter #  12 total cpu time :  3951.1 secs   av.it.:  11.0
      thresh= 3.536E-10 alpha_mix =  0.700 |ddv_scf|^2 =  1.314E-18

      iter #  13 total cpu time :  3996.9 secs   av.it.:  11.5
      thresh= 1.146E-10 alpha_mix =  0.700 |ddv_scf|^2 =  2.978E-19

     End of self-consistent calculation

     Convergence has been achieved 


     Representation #   3 mode #   3

     Self-consistent Calculation

      iter #   1 total cpu time :  4027.5 secs   av.it.:   3.1
      thresh= 1.000E-02 alpha_mix =  0.700 |ddv_scf|^2 =  7.871E-10

      iter #   2 total cpu time :  4074.2 secs   av.it.:  11.5
      thresh= 2.806E-06 alpha_mix =  0.700 |ddv_scf|^2 =  4.640E-10

      iter #   3 total cpu time :  4118.8 secs   av.it.:  11.0
      thresh= 2.154E-06 alpha_mix =  0.700 |ddv_scf|^2 =  1.424E-10

      iter #   4 total cpu time :  4161.3 secs   av.it.:  10.4
      thresh= 1.193E-06 alpha_mix =  0.700 |ddv_scf|^2 =  2.975E-11

      iter #   5 total cpu time :  4203.8 secs   av.it.:  10.3
      thresh= 5.455E-07 alpha_mix =  0.700 |ddv_scf|^2 =  1.856E-12

      iter #   6 total cpu time :  4248.6 secs   av.it.:  11.0
      thresh= 1.362E-07 alpha_mix =  0.700 |ddv_scf|^2 =  3.099E-13

      iter #   7 total cpu time :  4293.9 secs   av.it.:  11.3
      thresh= 5.567E-08 alpha_mix =  0.700 |ddv_scf|^2 =  2.961E-14

      iter #   8 total cpu time :  4338.6 secs   av.it.:  11.1
      thresh= 1.721E-08 alpha_mix =  0.700 |ddv_scf|^2 =  1.758E-15

      iter #   9 total cpu time :  4383.5 secs   av.it.:  11.2
      thresh= 4.193E-09 alpha_mix =  0.700 |ddv_scf|^2 =  1.289E-16

      iter #  10 total cpu time :  4429.1 secs   av.it.:  11.3
      thresh= 1.135E-09 alpha_mix =  0.700 |ddv_scf|^2 =  2.572E-17

      iter #  11 total cpu time :  4474.4 secs   av.it.:  11.3
      thresh= 5.072E-10 alpha_mix =  0.700 |ddv_scf|^2 =  9.154E-18

      iter #  12 total cpu time :  4518.2 secs   av.it.:  11.0
      thresh= 3.026E-10 alpha_mix =  0.700 |ddv_scf|^2 =  1.585E-18

      iter #  13 total cpu time :  4562.7 secs   av.it.:  11.0
      thresh= 1.259E-10 alpha_mix =  0.700 |ddv_scf|^2 =  4.478E-19

     End of self-consistent calculation

     Convergence has been achieved 


     Representation #   4 mode #   4

     Self-consistent Calculation

      iter #   1 total cpu time :  4597.5 secs   av.it.:   5.1
      thresh= 1.000E-02 alpha_mix =  0.700 |ddv_scf|^2 =  1.814E-08

      iter #   2 total cpu time :  4645.1 secs   av.it.:  12.0
      thresh= 1.347E-05 alpha_mix =  0.700 |ddv_scf|^2 =  1.789E-08

      iter #   3 total cpu time :  4689.6 secs   av.it.:  11.0
      thresh= 1.337E-05 alpha_mix =  0.700 |ddv_scf|^2 =  1.315E-09

      iter #   4 total cpu time :  4732.5 secs   av.it.:  10.5
      thresh= 3.626E-06 alpha_mix =  0.700 |ddv_scf|^2 =  1.769E-10

      iter #   5 total cpu time :  4777.2 secs   av.it.:  11.1
      thresh= 1.330E-06 alpha_mix =  0.700 |ddv_scf|^2 =  6.271E-11

      iter #   6 total cpu time :  4819.5 secs   av.it.:  10.5
      thresh= 7.919E-07 alpha_mix =  0.700 |ddv_scf|^2 =  7.739E-12

      iter #   7 total cpu time :  4863.6 secs   av.it.:  11.0
      thresh= 2.782E-07 alpha_mix =  0.700 |ddv_scf|^2 =  1.628E-12

      iter #   8 total cpu time :  4908.0 secs   av.it.:  11.0
      thresh= 1.276E-07 alpha_mix =  0.700 |ddv_scf|^2 =  2.871E-13

      iter #   9 total cpu time :  4951.5 secs   av.it.:  10.7
      thresh= 5.358E-08 alpha_mix =  0.700 |ddv_scf|^2 =  6.453E-15

      iter #  10 total cpu time :  4996.8 secs   av.it.:  11.3
      thresh= 8.033E-09 alpha_mix =  0.700 |ddv_scf|^2 =  6.822E-16

      iter #  11 total cpu time :  5043.5 secs   av.it.:  11.6
      thresh= 2.612E-09 alpha_mix =  0.700 |ddv_scf|^2 =  4.677E-16

      iter #  12 total cpu time :  5087.1 secs   av.it.:  11.0
      thresh= 2.163E-09 alpha_mix =  0.700 |ddv_scf|^2 =  7.826E-18

      iter #  13 total cpu time :  5132.9 secs   av.it.:  11.4
      thresh= 2.798E-10 alpha_mix =  0.700 |ddv_scf|^2 =  8.816E-18

      iter #  14 total cpu time :  5177.4 secs   av.it.:  10.7
      thresh= 2.969E-10 alpha_mix =  0.700 |ddv_scf|^2 =  3.209E-19

     End of self-consistent calculation

     Convergence has been achieved 


     Representation #   5 mode #   5

     Self-consistent Calculation

      iter #   1 total cpu time :  5213.9 secs   av.it.:   5.1
      thresh= 1.000E-02 alpha_mix =  0.700 |ddv_scf|^2 =  1.589E-08

      iter #   2 total cpu time :  5261.1 secs   av.it.:  11.9
      thresh= 1.260E-05 alpha_mix =  0.700 |ddv_scf|^2 =  1.803E-08

      iter #   3 total cpu time :  5305.3 secs   av.it.:  11.0
      thresh= 1.343E-05 alpha_mix =  0.700 |ddv_scf|^2 =  1.294E-09

      iter #   4 total cpu time :  5349.6 secs   av.it.:  10.6
      thresh= 3.598E-06 alpha_mix =  0.700 |ddv_scf|^2 =  1.362E-10

      iter #   5 total cpu time :  5395.1 secs   av.it.:  11.3
      thresh= 1.167E-06 alpha_mix =  0.700 |ddv_scf|^2 =  8.358E-11

      iter #   6 total cpu time :  5437.1 secs   av.it.:  10.2
      thresh= 9.142E-07 alpha_mix =  0.700 |ddv_scf|^2 =  9.979E-12

      iter #   7 total cpu time :  5481.3 secs   av.it.:  11.0
      thresh= 3.159E-07 alpha_mix =  0.700 |ddv_scf|^2 =  2.279E-12

      iter #   8 total cpu time :  5525.5 secs   av.it.:  10.9
      thresh= 1.509E-07 alpha_mix =  0.700 |ddv_scf|^2 =  3.096E-13

      iter #   9 total cpu time :  5569.3 secs   av.it.:  10.8
      thresh= 5.564E-08 alpha_mix =  0.700 |ddv_scf|^2 =  9.574E-15

      iter #  10 total cpu time :  5614.6 secs   av.it.:  11.3
      thresh= 9.784E-09 alpha_mix =  0.700 |ddv_scf|^2 =  9.873E-16

      iter #  11 total cpu time :  5661.0 secs   av.it.:  11.5
      thresh= 3.142E-09 alpha_mix =  0.700 |ddv_scf|^2 =  4.043E-16

      iter #  12 total cpu time :  5705.0 secs   av.it.:  10.9
      thresh= 2.011E-09 alpha_mix =  0.700 |ddv_scf|^2 =  1.343E-17

      iter #  13 total cpu time :  5751.6 secs   av.it.:  11.5
      thresh= 3.665E-10 alpha_mix =  0.700 |ddv_scf|^2 =  1.107E-17

      iter #  14 total cpu time :  5795.3 secs   av.it.:  10.9
      thresh= 3.327E-10 alpha_mix =  0.700 |ddv_scf|^2 =  1.006E-18

      iter #  15 total cpu time :  5840.0 secs   av.it.:  11.2
      thresh= 1.003E-10 alpha_mix =  0.700 |ddv_scf|^2 =  2.072E-19

     End of self-consistent calculation

     Convergence has been achieved 


     Representation #   6 mode #   6

     Self-consistent Calculation

      iter #   1 total cpu time :  5876.1 secs   av.it.:   5.1
      thresh= 1.000E-02 alpha_mix =  0.700 |ddv_scf|^2 =  4.881E-08

      iter #   2 total cpu time :  5922.7 secs   av.it.:  11.5
      thresh= 2.209E-05 alpha_mix =  0.700 |ddv_scf|^2 =  1.654E-07

      iter #   3 total cpu time :  5965.0 secs   av.it.:  10.0
      thresh= 4.066E-05 alpha_mix =  0.700 |ddv_scf|^2 =  1.843E-09

      iter #   4 total cpu time :  6010.1 secs   av.it.:  11.3
      thresh= 4.293E-06 alpha_mix =  0.700 |ddv_scf|^2 =  1.589E-10

      iter #   5 total cpu time :  6055.5 secs   av.it.:  11.3
      thresh= 1.260E-06 alpha_mix =  0.700 |ddv_scf|^2 =  1.316E-11

      iter #   6 total cpu time :  6100.4 secs   av.it.:  11.2
      thresh= 3.628E-07 alpha_mix =  0.700 |ddv_scf|^2 =  5.526E-12

      iter #   7 total cpu time :  6144.1 secs   av.it.:  10.7
      thresh= 2.351E-07 alpha_mix =  0.700 |ddv_scf|^2 =  6.775E-13

      iter #   8 total cpu time :  6188.6 secs   av.it.:  11.0
      thresh= 8.231E-08 alpha_mix =  0.700 |ddv_scf|^2 =  2.436E-13

      iter #   9 total cpu time :  6230.6 secs   av.it.:  10.0
      thresh= 4.936E-08 alpha_mix =  0.700 |ddv_scf|^2 =  2.878E-15

      iter #  10 total cpu time :  6277.3 secs   av.it.:  11.6
      thresh= 5.365E-09 alpha_mix =  0.700 |ddv_scf|^2 =  1.563E-15

      iter #  11 total cpu time :  6322.7 secs   av.it.:  11.3
      thresh= 3.954E-09 alpha_mix =  0.700 |ddv_scf|^2 =  1.571E-16

      iter #  12 total cpu time :  6368.6 secs   av.it.:  11.3
      thresh= 1.253E-09 alpha_mix =  0.700 |ddv_scf|^2 =  2.075E-17

      iter #  13 total cpu time :  6411.7 secs   av.it.:  10.5
      thresh= 4.555E-10 alpha_mix =  0.700 |ddv_scf|^2 =  4.853E-18

      iter #  14 total cpu time :  6456.0 secs   av.it.:  11.1
      thresh= 2.203E-10 alpha_mix =  0.700 |ddv_scf|^2 =  2.161E-18

      iter #  15 total cpu time :  6498.2 secs   av.it.:  10.3
      thresh= 1.470E-10 alpha_mix =  0.700 |ddv_scf|^2 =  5.139E-20

     End of self-consistent calculation

     Convergence has been achieved 


     Representation #   7 mode #   7

     Self-consistent Calculation

      iter #   1 total cpu time :  6536.8 secs   av.it.:   5.1
      thresh= 1.000E-02 alpha_mix =  0.700 |ddv_scf|^2 =  4.920E-08

      iter #   2 total cpu time :  6583.3 secs   av.it.:  11.6
      thresh= 2.218E-05 alpha_mix =  0.700 |ddv_scf|^2 =  6.518E-08

      iter #   3 total cpu time :  6626.7 secs   av.it.:  10.6
      thresh= 2.553E-05 alpha_mix =  0.700 |ddv_scf|^2 =  2.962E-09

      iter #   4 total cpu time :  6669.2 secs   av.it.:  10.4
      thresh= 5.443E-06 alpha_mix =  0.700 |ddv_scf|^2 =  3.902E-10

      iter #   5 total cpu time :  6713.1 secs   av.it.:  10.5
      thresh= 1.975E-06 alpha_mix =  0.700 |ddv_scf|^2 =  7.837E-11

      iter #   6 total cpu time :  6757.1 secs   av.it.:  10.9
      thresh= 8.853E-07 alpha_mix =  0.700 |ddv_scf|^2 =  1.125E-11

      iter #   7 total cpu time :  6802.6 secs   av.it.:  11.3
      thresh= 3.353E-07 alpha_mix =  0.700 |ddv_scf|^2 =  6.449E-13

      iter #   8 total cpu time :  6848.2 secs   av.it.:  11.4
      thresh= 8.031E-08 alpha_mix =  0.700 |ddv_scf|^2 =  3.539E-14

      iter #   9 total cpu time :  6894.1 secs   av.it.:  11.5
      thresh= 1.881E-08 alpha_mix =  0.700 |ddv_scf|^2 =  4.517E-15

      iter #  10 total cpu time :  6939.8 secs   av.it.:  11.3
      thresh= 6.721E-09 alpha_mix =  0.700 |ddv_scf|^2 =  4.143E-15

      iter #  11 total cpu time :  6982.4 secs   av.it.:  10.3
      thresh= 6.437E-09 alpha_mix =  0.700 |ddv_scf|^2 =  2.960E-16

      iter #  12 total cpu time :  7025.2 secs   av.it.:  10.5
      thresh= 1.720E-09 alpha_mix =  0.700 |ddv_scf|^2 =  2.507E-17

      iter #  13 total cpu time :  7070.4 secs   av.it.:  11.3
      thresh= 5.007E-10 alpha_mix =  0.700 |ddv_scf|^2 =  6.582E-18

      iter #  14 total cpu time :  7116.1 secs   av.it.:  11.3
      thresh= 2.565E-10 alpha_mix =  0.700 |ddv_scf|^2 =  1.091E-18

      iter #  15 total cpu time :  7161.5 secs   av.it.:  11.3
      thresh= 1.044E-10 alpha_mix =  0.700 |ddv_scf|^2 =  3.104E-19

     End of self-consistent calculation

     Convergence has been achieved 


     Representation #   8 mode #   8

     Self-consistent Calculation

      iter #   1 total cpu time :  7198.4 secs   av.it.:   5.2
      thresh= 1.000E-02 alpha_mix =  0.700 |ddv_scf|^2 =  1.503E-07

      iter #   2 total cpu time :  7243.5 secs   av.it.:  11.3
      thresh= 3.877E-05 alpha_mix =  0.700 |ddv_scf|^2 =  4.589E-07

      iter #   3 total cpu time :  7284.7 secs   av.it.:  10.0
      thresh= 6.774E-05 alpha_mix =  0.700 |ddv_scf|^2 =  3.399E-09

      iter #   4 total cpu time :  7328.2 secs   av.it.:  10.7
      thresh= 5.830E-06 alpha_mix =  0.700 |ddv_scf|^2 =  6.315E-10

      iter #   5 total cpu time :  7371.0 secs   av.it.:  10.5
      thresh= 2.513E-06 alpha_mix =  0.700 |ddv_scf|^2 =  3.069E-11

      iter #   6 total cpu time :  7416.0 secs   av.it.:  11.2
      thresh= 5.540E-07 alpha_mix =  0.700 |ddv_scf|^2 =  5.424E-12

      iter #   7 total cpu time :  7461.8 secs   av.it.:  11.3
      thresh= 2.329E-07 alpha_mix =  0.700 |ddv_scf|^2 =  5.074E-13

      iter #   8 total cpu time :  7507.6 secs   av.it.:  11.3
      thresh= 7.123E-08 alpha_mix =  0.700 |ddv_scf|^2 =  2.468E-14

      iter #   9 total cpu time :  7551.9 secs   av.it.:  11.0
      thresh= 1.571E-08 alpha_mix =  0.700 |ddv_scf|^2 =  2.751E-15

      iter #  10 total cpu time :  7597.1 secs   av.it.:  11.3
      thresh= 5.245E-09 alpha_mix =  0.700 |ddv_scf|^2 =  1.219E-15

      iter #  11 total cpu time :  7640.1 secs   av.it.:  10.5
      thresh= 3.492E-09 alpha_mix =  0.700 |ddv_scf|^2 =  1.633E-16

      iter #  12 total cpu time :  7683.9 secs   av.it.:  10.6
      thresh= 1.278E-09 alpha_mix =  0.700 |ddv_scf|^2 =  1.061E-17

      iter #  13 total cpu time :  7729.6 secs   av.it.:  11.4
      thresh= 3.257E-10 alpha_mix =  0.700 |ddv_scf|^2 =  1.638E-18

      iter #  14 total cpu time :  7774.8 secs   av.it.:  11.3
      thresh= 1.280E-10 alpha_mix =  0.700 |ddv_scf|^2 =  1.838E-19

     End of self-consistent calculation

     Convergence has been achieved 


     Representation #   9 mode #   9

     Self-consistent Calculation

      iter #   1 total cpu time :  7811.2 secs   av.it.:   5.0
      thresh= 1.000E-02 alpha_mix =  0.700 |ddv_scf|^2 =  7.423E-08

      iter #   2 total cpu time :  7856.6 secs   av.it.:  11.4
      thresh= 2.724E-05 alpha_mix =  0.700 |ddv_scf|^2 =  9.298E-08

      iter #   3 total cpu time :  7899.7 secs   av.it.:  10.5
      thresh= 3.049E-05 alpha_mix =  0.700 |ddv_scf|^2 =  9.969E-09

      iter #   4 total cpu time :  7941.4 secs   av.it.:  10.0
      thresh= 9.984E-06 alpha_mix =  0.700 |ddv_scf|^2 =  4.282E-10

      iter #   5 total cpu time :  7985.4 secs   av.it.:  10.9
      thresh= 2.069E-06 alpha_mix =  0.700 |ddv_scf|^2 =  2.063E-10

      iter #   6 total cpu time :  8029.4 secs   av.it.:  10.6
      thresh= 1.436E-06 alpha_mix =  0.700 |ddv_scf|^2 =  6.277E-12

      iter #   7 total cpu time :  8075.6 secs   av.it.:  11.5
      thresh= 2.505E-07 alpha_mix =  0.700 |ddv_scf|^2 =  2.228E-12

      iter #   8 total cpu time :  8120.7 secs   av.it.:  11.2
      thresh= 1.493E-07 alpha_mix =  0.700 |ddv_scf|^2 =  2.980E-13

      iter #   9 total cpu time :  8163.2 secs   av.it.:  10.4
      thresh= 5.459E-08 alpha_mix =  0.700 |ddv_scf|^2 =  8.705E-16

      iter #  10 total cpu time :  8209.3 secs   av.it.:  11.5
      thresh= 2.950E-09 alpha_mix =  0.700 |ddv_scf|^2 =  2.628E-16

      iter #  11 total cpu time :  8254.9 secs   av.it.:  11.3
      thresh= 1.621E-09 alpha_mix =  0.700 |ddv_scf|^2 =  2.243E-17

      iter #  12 total cpu time :  8300.1 secs   av.it.:  11.3
      thresh= 4.736E-10 alpha_mix =  0.700 |ddv_scf|^2 =  6.464E-18

      iter #  13 total cpu time :  8344.9 secs   av.it.:  11.1
      thresh= 2.542E-10 alpha_mix =  0.700 |ddv_scf|^2 =  4.150E-19

     End of self-consistent calculation

     Convergence has been achieved 


     Representation #  10 mode #  10

     Self-consistent Calculation

      iter #   1 total cpu time :  8376.7 secs   av.it.:   4.0
      thresh= 1.000E-02 alpha_mix =  0.700 |ddv_scf|^2 =  4.194E-09

      iter #   2 total cpu time :  8422.9 secs   av.it.:  11.4
      thresh= 6.476E-06 alpha_mix =  0.700 |ddv_scf|^2 =  1.622E-08

      iter #   3 total cpu time :  8463.2 secs   av.it.:   9.7
      thresh= 1.274E-05 alpha_mix =  0.700 |ddv_scf|^2 =  1.414E-10

      iter #   4 total cpu time :  8508.5 secs   av.it.:  11.3
      thresh= 1.189E-06 alpha_mix =  0.700 |ddv_scf|^2 =  3.404E-11

      iter #   5 total cpu time :  8553.3 secs   av.it.:  11.2
      thresh= 5.834E-07 alpha_mix =  0.700 |ddv_scf|^2 =  1.262E-11

      iter #   6 total cpu time :  8597.3 secs   av.it.:  10.6
      thresh= 3.553E-07 alpha_mix =  0.700 |ddv_scf|^2 =  1.679E-12

      iter #   7 total cpu time :  8641.0 secs   av.it.:  10.9
      thresh= 1.296E-07 alpha_mix =  0.700 |ddv_scf|^2 =  3.062E-13

      iter #   8 total cpu time :  8685.2 secs   av.it.:  11.0
      thresh= 5.534E-08 alpha_mix =  0.700 |ddv_scf|^2 =  2.366E-14

      iter #   9 total cpu time :  8731.0 secs   av.it.:  11.2
      thresh= 1.538E-08 alpha_mix =  0.700 |ddv_scf|^2 =  1.361E-14

      iter #  10 total cpu time :  8775.0 secs   av.it.:  11.0
      thresh= 1.167E-08 alpha_mix =  0.700 |ddv_scf|^2 =  2.291E-16

      iter #  11 total cpu time :  8818.7 secs   av.it.:  10.8
      thresh= 1.513E-09 alpha_mix =  0.700 |ddv_scf|^2 =  1.751E-17

      iter #  12 total cpu time :  8864.2 secs   av.it.:  11.2
      thresh= 4.184E-10 alpha_mix =  0.700 |ddv_scf|^2 =  3.302E-18

      iter #  13 total cpu time :  8910.4 secs   av.it.:  11.3
      thresh= 1.817E-10 alpha_mix =  0.700 |ddv_scf|^2 =  2.663E-19

     End of self-consistent calculation

     Convergence has been achieved 


     Representation #  11 mode #  11

     Self-consistent Calculation

      iter #   1 total cpu time :  8945.7 secs   av.it.:   5.2
      thresh= 1.000E-02 alpha_mix =  0.700 |ddv_scf|^2 =  1.519E-07

      iter #   2 total cpu time :  8990.6 secs   av.it.:  11.3
      thresh= 3.897E-05 alpha_mix =  0.700 |ddv_scf|^2 =  4.646E-07

      iter #   3 total cpu time :  9031.7 secs   av.it.:  10.0
      thresh= 6.816E-05 alpha_mix =  0.700 |ddv_scf|^2 =  3.278E-09

      iter #   4 total cpu time :  9075.4 secs   av.it.:  10.7
      thresh= 5.725E-06 alpha_mix =  0.700 |ddv_scf|^2 =  6.427E-10

      iter #   5 total cpu time :  9118.8 secs   av.it.:  10.5
      thresh= 2.535E-06 alpha_mix =  0.700 |ddv_scf|^2 =  2.700E-11

      iter #   6 total cpu time :  9163.8 secs   av.it.:  11.3
      thresh= 5.196E-07 alpha_mix =  0.700 |ddv_scf|^2 =  5.730E-12

      iter #   7 total cpu time :  9209.0 secs   av.it.:  11.3
      thresh= 2.394E-07 alpha_mix =  0.700 |ddv_scf|^2 =  4.682E-13

      iter #   8 total cpu time :  9255.6 secs   av.it.:  11.4
      thresh= 6.843E-08 alpha_mix =  0.700 |ddv_scf|^2 =  2.705E-14

      iter #   9 total cpu time :  9300.7 secs   av.it.:  11.3
      thresh= 1.645E-08 alpha_mix =  0.700 |ddv_scf|^2 =  1.239E-14

      iter #  10 total cpu time :  9344.2 secs   av.it.:  10.6
      thresh= 1.113E-08 alpha_mix =  0.700 |ddv_scf|^2 =  8.354E-16

      iter #  11 total cpu time :  9387.8 secs   av.it.:  10.6
      thresh= 2.890E-09 alpha_mix =  0.700 |ddv_scf|^2 =  6.378E-17

      iter #  12 total cpu time :  9432.0 secs   av.it.:  11.0
      thresh= 7.986E-10 alpha_mix =  0.700 |ddv_scf|^2 =  1.086E-17

      iter #  13 total cpu time :  9476.8 secs   av.it.:  11.1
      thresh= 3.295E-10 alpha_mix =  0.700 |ddv_scf|^2 =  1.883E-18

      iter #  14 total cpu time :  9522.2 secs   av.it.:  11.3
      thresh= 1.372E-10 alpha_mix =  0.700 |ddv_scf|^2 =  2.304E-19

     End of self-consistent calculation

     Convergence has been achieved 


     Representation #  12 mode #  12

     Self-consistent Calculation

      iter #   1 total cpu time :  9558.5 secs   av.it.:   5.0
      thresh= 1.000E-02 alpha_mix =  0.700 |ddv_scf|^2 =  1.625E-07

      iter #   2 total cpu time :  9603.2 secs   av.it.:  11.2
      thresh= 4.031E-05 alpha_mix =  0.700 |ddv_scf|^2 =  6.986E-07

      iter #   3 total cpu time :  9643.6 secs   av.it.:   9.8
      thresh= 8.358E-05 alpha_mix =  0.700 |ddv_scf|^2 =  8.611E-10

      iter #   4 total cpu time :  9689.8 secs   av.it.:  11.4
      thresh= 2.934E-06 alpha_mix =  0.700 |ddv_scf|^2 =  2.348E-10

      iter #   5 total cpu time :  9734.8 secs   av.it.:  11.2
      thresh= 1.532E-06 alpha_mix =  0.700 |ddv_scf|^2 =  1.325E-11

      iter #   6 total cpu time :  9780.2 secs   av.it.:  11.3
      thresh= 3.640E-07 alpha_mix =  0.700 |ddv_scf|^2 =  3.449E-12

      iter #   7 total cpu time :  9824.1 secs   av.it.:  10.8
      thresh= 1.857E-07 alpha_mix =  0.700 |ddv_scf|^2 =  9.971E-13

      iter #   8 total cpu time :  9868.7 secs   av.it.:  11.1
      thresh= 9.985E-08 alpha_mix =  0.700 |ddv_scf|^2 =  6.174E-13

      iter #   9 total cpu time :  9910.6 secs   av.it.:  10.3
      thresh= 7.857E-08 alpha_mix =  0.700 |ddv_scf|^2 =  1.417E-14

      iter #  10 total cpu time :  9954.4 secs   av.it.:  10.8
      thresh= 1.191E-08 alpha_mix =  0.700 |ddv_scf|^2 =  2.488E-15

      iter #  11 total cpu time :  9998.5 secs   av.it.:  10.9
      thresh= 4.988E-09 alpha_mix =  0.700 |ddv_scf|^2 =  1.358E-16

      iter #  12 total cpu time : 10043.7 secs   av.it.:  11.3
      thresh= 1.165E-09 alpha_mix =  0.700 |ddv_scf|^2 =  1.219E-17

      iter #  13 total cpu time : 10087.4 secs   av.it.:  10.6
      thresh= 3.491E-10 alpha_mix =  0.700 |ddv_scf|^2 =  1.009E-18

      iter #  14 total cpu time : 10130.5 secs   av.it.:  10.5
      thresh= 1.004E-10 alpha_mix =  0.700 |ddv_scf|^2 =  6.191E-20

     End of self-consistent calculation

     Convergence has been achieved 


     Representation #  13 mode #  13

     Self-consistent Calculation

      iter #   1 total cpu time : 10162.7 secs   av.it.:   4.0
      thresh= 1.000E-02 alpha_mix =  0.700 |ddv_scf|^2 =  4.236E-09

      iter #   2 total cpu time : 10209.5 secs   av.it.:  11.5
      thresh= 6.509E-06 alpha_mix =  0.700 |ddv_scf|^2 =  1.756E-08

      iter #   3 total cpu time : 10250.3 secs   av.it.:   9.8
      thresh= 1.325E-05 alpha_mix =  0.700 |ddv_scf|^2 =  1.969E-10

      iter #   4 total cpu time : 10295.6 secs   av.it.:  11.3
      thresh= 1.403E-06 alpha_mix =  0.700 |ddv_scf|^2 =  4.747E-11

      iter #   5 total cpu time : 10340.0 secs   av.it.:  11.1
      thresh= 6.890E-07 alpha_mix =  0.700 |ddv_scf|^2 =  1.391E-11

      iter #   6 total cpu time : 10383.7 secs   av.it.:  10.5
      thresh= 3.730E-07 alpha_mix =  0.700 |ddv_scf|^2 =  2.170E-12

      iter #   7 total cpu time : 10427.8 secs   av.it.:  10.9
      thresh= 1.473E-07 alpha_mix =  0.700 |ddv_scf|^2 =  3.841E-13

      iter #   8 total cpu time : 10472.3 secs   av.it.:  11.0
      thresh= 6.197E-08 alpha_mix =  0.700 |ddv_scf|^2 =  2.990E-14

      iter #   9 total cpu time : 10517.3 secs   av.it.:  11.2
      thresh= 1.729E-08 alpha_mix =  0.700 |ddv_scf|^2 =  1.201E-14

      iter #  10 total cpu time : 10561.8 secs   av.it.:  11.1
      thresh= 1.096E-08 alpha_mix =  0.700 |ddv_scf|^2 =  4.193E-16

      iter #  11 total cpu time : 10605.7 secs   av.it.:  10.7
      thresh= 2.048E-09 alpha_mix =  0.700 |ddv_scf|^2 =  3.089E-17

      iter #  12 total cpu time : 10650.6 secs   av.it.:  11.2
      thresh= 5.558E-10 alpha_mix =  0.700 |ddv_scf|^2 =  4.058E-18

      iter #  13 total cpu time : 10696.1 secs   av.it.:  11.3
      thresh= 2.015E-10 alpha_mix =  0.700 |ddv_scf|^2 =  8.352E-19

     End of self-consistent calculation

     Convergence has been achieved 


     Representation #  14 mode #  14

     Self-consistent Calculation

      iter #   1 total cpu time : 10730.2 secs   av.it.:   5.0
      thresh= 1.000E-02 alpha_mix =  0.700 |ddv_scf|^2 =  4.084E-08

      iter #   2 total cpu time : 10776.6 secs   av.it.:  11.5
      thresh= 2.021E-05 alpha_mix =  0.700 |ddv_scf|^2 =  4.508E-08

      iter #   3 total cpu time : 10820.0 secs   av.it.:  10.5
      thresh= 2.123E-05 alpha_mix =  0.700 |ddv_scf|^2 =  8.968E-09

      iter #   4 total cpu time : 10861.3 secs   av.it.:  10.0
      thresh= 9.470E-06 alpha_mix =  0.700 |ddv_scf|^2 =  2.166E-10

      iter #   5 total cpu time : 10905.7 secs   av.it.:  11.0
      thresh= 1.472E-06 alpha_mix =  0.700 |ddv_scf|^2 =  1.503E-10

      iter #   6 total cpu time : 10949.1 secs   av.it.:  10.6
      thresh= 1.226E-06 alpha_mix =  0.700 |ddv_scf|^2 =  5.168E-12

      iter #   7 total cpu time : 10993.9 secs   av.it.:  11.1
      thresh= 2.273E-07 alpha_mix =  0.700 |ddv_scf|^2 =  1.591E-12

      iter #   8 total cpu time : 11037.9 secs   av.it.:  10.7
      thresh= 1.261E-07 alpha_mix =  0.700 |ddv_scf|^2 =  7.756E-14

      iter #   9 total cpu time : 11082.5 secs   av.it.:  11.0
      thresh= 2.785E-08 alpha_mix =  0.700 |ddv_scf|^2 =  1.513E-15

      iter #  10 total cpu time : 11127.2 secs   av.it.:  11.2
      thresh= 3.889E-09 alpha_mix =  0.700 |ddv_scf|^2 =  6.604E-17

      iter #  11 total cpu time : 11171.2 secs   av.it.:  10.8
      thresh= 8.126E-10 alpha_mix =  0.700 |ddv_scf|^2 =  1.332E-18

      iter #  12 total cpu time : 11217.6 secs   av.it.:  11.6
      thresh= 1.154E-10 alpha_mix =  0.700 |ddv_scf|^2 =  1.135E-18

      iter #  13 total cpu time : 11262.2 secs   av.it.:  11.0
      thresh= 1.065E-10 alpha_mix =  0.700 |ddv_scf|^2 =  5.665E-20

     End of self-consistent calculation

     Convergence has been achieved 


     Representation #  15 mode #  15

     Self-consistent Calculation

      iter #   1 total cpu time : 11296.7 secs   av.it.:   4.9
      thresh= 1.000E-02 alpha_mix =  0.700 |ddv_scf|^2 =  3.605E-09

      iter #   2 total cpu time : 11343.1 secs   av.it.:  11.6
      thresh= 6.004E-06 alpha_mix =  0.700 |ddv_scf|^2 =  2.242E-10

      iter #   3 total cpu time : 11386.4 secs   av.it.:  11.1
      thresh= 1.497E-06 alpha_mix =  0.700 |ddv_scf|^2 =  9.477E-12

      iter #   4 total cpu time : 11429.8 secs   av.it.:  11.1
      thresh= 3.078E-07 alpha_mix =  0.700 |ddv_scf|^2 =  5.344E-15

      iter #   5 total cpu time : 11476.5 secs   av.it.:  12.1
      thresh= 7.310E-09 alpha_mix =  0.700 |ddv_scf|^2 =  1.911E-16

      iter #   6 total cpu time : 11521.0 secs   av.it.:  11.3
      thresh= 1.382E-09 alpha_mix =  0.700 |ddv_scf|^2 =  1.038E-17

      iter #   7 total cpu time : 11564.0 secs   av.it.:  11.0
      thresh= 3.221E-10 alpha_mix =  0.700 |ddv_scf|^2 =  3.047E-20

     End of self-consistent calculation

     Convergence has been achieved 


     Representation #  16 mode #  16

     Self-consistent Calculation

      iter #   1 total cpu time : 11598.0 secs   av.it.:   4.9
      thresh= 1.000E-02 alpha_mix =  0.700 |ddv_scf|^2 =  3.440E-09

      iter #   2 total cpu time : 11644.1 secs   av.it.:  11.7
      thresh= 5.865E-06 alpha_mix =  0.700 |ddv_scf|^2 =  2.124E-10

      iter #   3 total cpu time : 11687.3 secs   av.it.:  11.1
      thresh= 1.457E-06 alpha_mix =  0.700 |ddv_scf|^2 =  9.402E-12

      iter #   4 total cpu time : 11731.5 secs   av.it.:  11.1
      thresh= 3.066E-07 alpha_mix =  0.700 |ddv_scf|^2 =  5.258E-15

      iter #   5 total cpu time : 11778.0 secs   av.it.:  12.1
      thresh= 7.251E-09 alpha_mix =  0.700 |ddv_scf|^2 =  1.964E-16

      iter #   6 total cpu time : 11822.3 secs   av.it.:  11.3
      thresh= 1.401E-09 alpha_mix =  0.700 |ddv_scf|^2 =  1.050E-17

      iter #   7 total cpu time : 11865.6 secs   av.it.:  11.0
      thresh= 3.240E-10 alpha_mix =  0.700 |ddv_scf|^2 =  3.082E-20

     End of self-consistent calculation

     Convergence has been achieved 


     Representation #  17 mode #  17

     Self-consistent Calculation

      iter #   1 total cpu time : 11894.7 secs   av.it.:   3.0
      thresh= 1.000E-02 alpha_mix =  0.700 |ddv_scf|^2 =  3.474E-10

      iter #   2 total cpu time : 11940.2 secs   av.it.:  11.4
      thresh= 1.864E-06 alpha_mix =  0.700 |ddv_scf|^2 =  2.720E-11

      iter #   3 total cpu time : 11982.2 secs   av.it.:  10.5
      thresh= 5.215E-07 alpha_mix =  0.700 |ddv_scf|^2 =  1.878E-13

      iter #   4 total cpu time : 12026.9 secs   av.it.:  11.4
      thresh= 4.333E-08 alpha_mix =  0.700 |ddv_scf|^2 =  1.134E-15

      iter #   5 total cpu time : 12073.4 secs   av.it.:  12.1
      thresh= 3.368E-09 alpha_mix =  0.700 |ddv_scf|^2 =  6.070E-17

      iter #   6 total cpu time : 12119.2 secs   av.it.:  11.6
      thresh= 7.791E-10 alpha_mix =  0.700 |ddv_scf|^2 =  1.547E-18

      iter #   7 total cpu time : 12163.6 secs   av.it.:  11.3
      thresh= 1.244E-10 alpha_mix =  0.700 |ddv_scf|^2 =  2.491E-20

     End of self-consistent calculation

     Convergence has been achieved 


     Representation #  18 mode #  18

     Self-consistent Calculation

      iter #   1 total cpu time : 12195.8 secs   av.it.:   5.0
      thresh= 1.000E-02 alpha_mix =  0.700 |ddv_scf|^2 =  3.779E-09

      iter #   2 total cpu time : 12241.8 secs   av.it.:  11.7
      thresh= 6.148E-06 alpha_mix =  0.700 |ddv_scf|^2 =  2.499E-10

      iter #   3 total cpu time : 12284.0 secs   av.it.:  10.5
      thresh= 1.581E-06 alpha_mix =  0.700 |ddv_scf|^2 =  7.775E-12

      iter #   4 total cpu time : 12327.7 secs   av.it.:  11.1
      thresh= 2.788E-07 alpha_mix =  0.700 |ddv_scf|^2 =  6.957E-15

      iter #   5 total cpu time : 12372.8 secs   av.it.:  11.5
      thresh= 8.341E-09 alpha_mix =  0.700 |ddv_scf|^2 =  4.003E-16

      iter #   6 total cpu time : 12415.6 secs   av.it.:  10.7
      thresh= 2.001E-09 alpha_mix =  0.700 |ddv_scf|^2 =  6.816E-18

      iter #   7 total cpu time : 12459.9 secs   av.it.:  11.2
      thresh= 2.611E-10 alpha_mix =  0.700 |ddv_scf|^2 =  1.522E-20

     End of self-consistent calculation

     Convergence has been achieved 


     Representation #  19 mode #  19

     Self-consistent Calculation

      iter #   1 total cpu time : 12492.3 secs   av.it.:   4.2
      thresh= 1.000E-02 alpha_mix =  0.700 |ddv_scf|^2 =  3.581E-09

      iter #   2 total cpu time : 12536.3 secs   av.it.:  10.9
      thresh= 5.984E-06 alpha_mix =  0.700 |ddv_scf|^2 =  2.220E-10

      iter #   3 total cpu time : 12577.9 secs   av.it.:  10.5
      thresh= 1.490E-06 alpha_mix =  0.700 |ddv_scf|^2 =  9.453E-12

      iter #   4 total cpu time : 12620.5 secs   av.it.:  10.5
      thresh= 3.075E-07 alpha_mix =  0.700 |ddv_scf|^2 =  5.363E-15

      iter #   5 total cpu time : 12664.9 secs   av.it.:  11.3
      thresh= 7.323E-09 alpha_mix =  0.700 |ddv_scf|^2 =  1.834E-16

      iter #   6 total cpu time : 12707.2 secs   av.it.:  10.5
      thresh= 1.354E-09 alpha_mix =  0.700 |ddv_scf|^2 =  4.359E-18

      iter #   7 total cpu time : 12748.9 secs   av.it.:  10.7
      thresh= 2.088E-10 alpha_mix =  0.700 |ddv_scf|^2 =  8.094E-21

     End of self-consistent calculation

     Convergence has been achieved 


     Representation #  20 mode #  20

     Self-consistent Calculation

      iter #   1 total cpu time : 12778.7 secs   av.it.:   3.0
      thresh= 1.000E-02 alpha_mix =  0.700 |ddv_scf|^2 =  3.148E-10

      iter #   2 total cpu time : 12823.8 secs   av.it.:  11.5
      thresh= 1.774E-06 alpha_mix =  0.700 |ddv_scf|^2 =  2.375E-11

      iter #   3 total cpu time : 12866.7 secs   av.it.:  10.6
      thresh= 4.873E-07 alpha_mix =  0.700 |ddv_scf|^2 =  1.926E-13

      iter #   4 total cpu time : 12911.5 secs   av.it.:  11.4
      thresh= 4.389E-08 alpha_mix =  0.700 |ddv_scf|^2 =  8.196E-16

      iter #   5 total cpu time : 12959.2 secs   av.it.:  12.2
      thresh= 2.863E-09 alpha_mix =  0.700 |ddv_scf|^2 =  3.272E-17

      iter #   6 total cpu time : 13005.9 secs   av.it.:  12.1
      thresh= 5.720E-10 alpha_mix =  0.700 |ddv_scf|^2 =  1.121E-18

      iter #   7 total cpu time : 13050.3 secs   av.it.:  11.3
      thresh= 1.059E-10 alpha_mix =  0.700 |ddv_scf|^2 =  2.694E-20

     End of self-consistent calculation

     Convergence has been achieved 


     Representation #  21 mode #  21

     Self-consistent Calculation

      iter #   1 total cpu time : 13082.4 secs   av.it.:   5.0
      thresh= 1.000E-02 alpha_mix =  0.700 |ddv_scf|^2 =  3.967E-09

      iter #   2 total cpu time : 13128.5 secs   av.it.:  11.6
      thresh= 6.299E-06 alpha_mix =  0.700 |ddv_scf|^2 =  2.612E-10

      iter #   3 total cpu time : 13170.9 secs   av.it.:  10.5
      thresh= 1.616E-06 alpha_mix =  0.700 |ddv_scf|^2 =  7.680E-12

      iter #   4 total cpu time : 13214.6 secs   av.it.:  11.1
      thresh= 2.771E-07 alpha_mix =  0.700 |ddv_scf|^2 =  5.359E-15

      iter #   5 total cpu time : 13260.1 secs   av.it.:  11.5
      thresh= 7.320E-09 alpha_mix =  0.700 |ddv_scf|^2 =  2.295E-16

      iter #   6 total cpu time : 13303.5 secs   av.it.:  11.0
      thresh= 1.515E-09 alpha_mix =  0.700 |ddv_scf|^2 =  7.498E-18

      iter #   7 total cpu time : 13347.2 secs   av.it.:  11.2
      thresh= 2.738E-10 alpha_mix =  0.700 |ddv_scf|^2 =  1.360E-20

     End of self-consistent calculation

     Convergence has been achieved 


     Representation #  22 mode #  22

     Self-consistent Calculation

      iter #   1 total cpu time : 13381.3 secs   av.it.:   5.0
      thresh= 1.000E-02 alpha_mix =  0.700 |ddv_scf|^2 =  9.192E-09

      iter #   2 total cpu time : 13429.6 secs   av.it.:  12.2
      thresh= 9.588E-06 alpha_mix =  0.700 |ddv_scf|^2 =  1.136E-08

      iter #   3 total cpu time : 13476.2 secs   av.it.:  11.4
      thresh= 1.066E-05 alpha_mix =  0.700 |ddv_scf|^2 =  1.538E-10

      iter #   4 total cpu time : 13522.3 secs   av.it.:  11.5
      thresh= 1.240E-06 alpha_mix =  0.700 |ddv_scf|^2 =  5.012E-11

      iter #   5 total cpu time : 13568.8 secs   av.it.:  11.5
      thresh= 7.080E-07 alpha_mix =  0.700 |ddv_scf|^2 =  9.317E-13

      iter #   6 total cpu time : 13616.0 secs   av.it.:  11.8
      thresh= 9.653E-08 alpha_mix =  0.700 |ddv_scf|^2 =  1.700E-13

      iter #   7 total cpu time : 13662.9 secs   av.it.:  11.6
      thresh= 4.123E-08 alpha_mix =  0.700 |ddv_scf|^2 =  1.361E-15

      iter #   8 total cpu time : 13709.2 secs   av.it.:  11.5
      thresh= 3.690E-09 alpha_mix =  0.700 |ddv_scf|^2 =  4.024E-16

      iter #   9 total cpu time : 13756.2 secs   av.it.:  11.8
      thresh= 2.006E-09 alpha_mix =  0.700 |ddv_scf|^2 =  4.493E-17

      iter #  10 total cpu time : 13802.8 secs   av.it.:  11.4
      thresh= 6.703E-10 alpha_mix =  0.700 |ddv_scf|^2 =  2.837E-18

      iter #  11 total cpu time : 13849.3 secs   av.it.:  11.7
      thresh= 1.684E-10 alpha_mix =  0.700 |ddv_scf|^2 =  7.943E-19

     End of self-consistent calculation

     Convergence has been achieved 


     Representation #  23 mode #  23

     Self-consistent Calculation

      iter #   1 total cpu time : 13881.5 secs   av.it.:   3.9
      thresh= 1.000E-02 alpha_mix =  0.700 |ddv_scf|^2 =  6.540E-10

      iter #   2 total cpu time : 13930.7 secs   av.it.:  12.1
      thresh= 2.557E-06 alpha_mix =  0.700 |ddv_scf|^2 =  6.282E-10

      iter #   3 total cpu time : 13977.9 secs   av.it.:  11.6
      thresh= 2.506E-06 alpha_mix =  0.700 |ddv_scf|^2 =  1.705E-11

      iter #   4 total cpu time : 14024.8 secs   av.it.:  11.5
      thresh= 4.129E-07 alpha_mix =  0.700 |ddv_scf|^2 =  1.890E-12

      iter #   5 total cpu time : 14072.7 secs   av.it.:  11.8
      thresh= 1.375E-07 alpha_mix =  0.700 |ddv_scf|^2 =  8.860E-14

      iter #   6 total cpu time : 14119.7 secs   av.it.:  11.9
      thresh= 2.977E-08 alpha_mix =  0.700 |ddv_scf|^2 =  2.089E-14

      iter #   7 total cpu time : 14166.3 secs   av.it.:  11.4
      thresh= 1.445E-08 alpha_mix =  0.700 |ddv_scf|^2 =  1.010E-16

      iter #   8 total cpu time : 14214.6 secs   av.it.:  12.1
      thresh= 1.005E-09 alpha_mix =  0.700 |ddv_scf|^2 =  6.712E-17

      iter #   9 total cpu time : 14261.2 secs   av.it.:  11.5
      thresh= 8.193E-10 alpha_mix =  0.700 |ddv_scf|^2 =  9.972E-18

      iter #  10 total cpu time : 14308.2 secs   av.it.:  11.8
      thresh= 3.158E-10 alpha_mix =  0.700 |ddv_scf|^2 =  4.248E-18

      iter #  11 total cpu time : 14355.1 secs   av.it.:  11.6
      thresh= 2.061E-10 alpha_mix =  0.700 |ddv_scf|^2 =  4.071E-19

     End of self-consistent calculation

     Convergence has been achieved 


     Representation #  24 mode #  24

     Self-consistent Calculation

      iter #   1 total cpu time : 14389.6 secs   av.it.:   5.0
      thresh= 1.000E-02 alpha_mix =  0.700 |ddv_scf|^2 =  8.134E-09

      iter #   2 total cpu time : 14437.3 secs   av.it.:  12.2
      thresh= 9.019E-06 alpha_mix =  0.700 |ddv_scf|^2 =  8.757E-09

      iter #   3 total cpu time : 14483.0 secs   av.it.:  11.3
      thresh= 9.358E-06 alpha_mix =  0.700 |ddv_scf|^2 =  2.469E-10

      iter #   4 total cpu time : 14529.3 secs   av.it.:  11.4
      thresh= 1.571E-06 alpha_mix =  0.700 |ddv_scf|^2 =  5.104E-11

      iter #   5 total cpu time : 14576.2 secs   av.it.:  11.7
      thresh= 7.144E-07 alpha_mix =  0.700 |ddv_scf|^2 =  5.397E-13

      iter #   6 total cpu time : 14623.2 secs   av.it.:  11.7
      thresh= 7.346E-08 alpha_mix =  0.700 |ddv_scf|^2 =  2.317E-14

      iter #   7 total cpu time : 14671.1 secs   av.it.:  11.8
      thresh= 1.522E-08 alpha_mix =  0.700 |ddv_scf|^2 =  7.203E-16

      iter #   8 total cpu time : 14717.7 secs   av.it.:  11.6
      thresh= 2.684E-09 alpha_mix =  0.700 |ddv_scf|^2 =  1.409E-16

      iter #   9 total cpu time : 14764.5 secs   av.it.:  11.7
      thresh= 1.187E-09 alpha_mix =  0.700 |ddv_scf|^2 =  2.089E-17

      iter #  10 total cpu time : 14810.9 secs   av.it.:  11.4
      thresh= 4.571E-10 alpha_mix =  0.700 |ddv_scf|^2 =  2.778E-18

      iter #  11 total cpu time : 14857.1 secs   av.it.:  11.5
      thresh= 1.667E-10 alpha_mix =  0.700 |ddv_scf|^2 =  3.704E-19

     End of self-consistent calculation

     Convergence has been achieved 


     Representation #  25 mode #  25

     Self-consistent Calculation

      iter #   1 total cpu time : 14892.5 secs   av.it.:   4.9
      thresh= 1.000E-02 alpha_mix =  0.700 |ddv_scf|^2 =  5.924E-09

      iter #   2 total cpu time : 14940.6 secs   av.it.:  12.1
      thresh= 7.697E-06 alpha_mix =  0.700 |ddv_scf|^2 =  4.438E-09

      iter #   3 total cpu time : 14987.3 secs   av.it.:  11.5
      thresh= 6.662E-06 alpha_mix =  0.700 |ddv_scf|^2 =  3.645E-10

      iter #   4 total cpu time : 15033.1 secs   av.it.:  11.4
      thresh= 1.909E-06 alpha_mix =  0.700 |ddv_scf|^2 =  4.438E-11

      iter #   5 total cpu time : 15079.5 secs   av.it.:  11.5
      thresh= 6.662E-07 alpha_mix =  0.700 |ddv_scf|^2 =  2.034E-12

      iter #   6 total cpu time : 15126.0 secs   av.it.:  11.5
      thresh= 1.426E-07 alpha_mix =  0.700 |ddv_scf|^2 =  1.814E-13

      iter #   7 total cpu time : 15173.3 secs   av.it.:  11.5
      thresh= 4.259E-08 alpha_mix =  0.700 |ddv_scf|^2 =  8.326E-16

      iter #   8 total cpu time : 15220.4 secs   av.it.:  11.8
      thresh= 2.885E-09 alpha_mix =  0.700 |ddv_scf|^2 =  1.273E-16

      iter #   9 total cpu time : 15268.3 secs   av.it.:  12.1
      thresh= 1.128E-09 alpha_mix =  0.700 |ddv_scf|^2 =  4.284E-17

      iter #  10 total cpu time : 15314.9 secs   av.it.:  11.5
      thresh= 6.545E-10 alpha_mix =  0.700 |ddv_scf|^2 =  7.550E-18

      iter #  11 total cpu time : 15360.6 secs   av.it.:  11.4
      thresh= 2.748E-10 alpha_mix =  0.700 |ddv_scf|^2 =  3.089E-19

     End of self-consistent calculation

     Convergence has been achieved 


     Representation #  26 mode #  26

     Self-consistent Calculation

      iter #   1 total cpu time : 15389.7 secs   av.it.:   4.0
      thresh= 1.000E-02 alpha_mix =  0.700 |ddv_scf|^2 =  8.528E-10

      iter #   2 total cpu time : 15433.8 secs   av.it.:  12.1
      thresh= 2.920E-06 alpha_mix =  0.700 |ddv_scf|^2 =  9.363E-10

      iter #   3 total cpu time : 15475.7 secs   av.it.:  11.5
      thresh= 3.060E-06 alpha_mix =  0.700 |ddv_scf|^2 =  1.495E-11

      iter #   4 total cpu time : 15517.5 secs   av.it.:  11.5
      thresh= 3.866E-07 alpha_mix =  0.700 |ddv_scf|^2 =  1.629E-12

      iter #   5 total cpu time : 15560.2 secs   av.it.:  11.9
      thresh= 1.276E-07 alpha_mix =  0.700 |ddv_scf|^2 =  1.172E-13

      iter #   6 total cpu time : 15603.0 secs   av.it.:  11.8
      thresh= 3.424E-08 alpha_mix =  0.700 |ddv_scf|^2 =  1.904E-14

      iter #   7 total cpu time : 15644.7 secs   av.it.:  11.4
      thresh= 1.380E-08 alpha_mix =  0.700 |ddv_scf|^2 =  1.425E-16

      iter #   8 total cpu time : 15687.9 secs   av.it.:  12.1
      thresh= 1.194E-09 alpha_mix =  0.700 |ddv_scf|^2 =  9.842E-17

      iter #   9 total cpu time : 15730.0 secs   av.it.:  11.5
      thresh= 9.921E-10 alpha_mix =  0.700 |ddv_scf|^2 =  5.331E-18

      iter #  10 total cpu time : 15773.5 secs   av.it.:  12.1
      thresh= 2.309E-10 alpha_mix =  0.700 |ddv_scf|^2 =  4.424E-18

      iter #  11 total cpu time : 15815.6 secs   av.it.:  11.5
      thresh= 2.103E-10 alpha_mix =  0.700 |ddv_scf|^2 =  1.317E-19

     End of self-consistent calculation

     Convergence has been achieved 


     Representation #  27 mode #  27

     Self-consistent Calculation

      iter #   1 total cpu time : 15846.1 secs   av.it.:   4.9
      thresh= 1.000E-02 alpha_mix =  0.700 |ddv_scf|^2 =  6.097E-09

      iter #   2 total cpu time : 15889.2 secs   av.it.:  12.1
      thresh= 7.808E-06 alpha_mix =  0.700 |ddv_scf|^2 =  4.218E-09

      iter #   3 total cpu time : 15931.2 secs   av.it.:  11.5
      thresh= 6.495E-06 alpha_mix =  0.700 |ddv_scf|^2 =  4.278E-10

      iter #   4 total cpu time : 15975.3 secs   av.it.:  11.4
      thresh= 2.068E-06 alpha_mix =  0.700 |ddv_scf|^2 =  4.552E-11

      iter #   5 total cpu time : 16020.9 secs   av.it.:  11.5
      thresh= 6.747E-07 alpha_mix =  0.700 |ddv_scf|^2 =  2.197E-12

      iter #   6 total cpu time : 16068.0 secs   av.it.:  11.5
      thresh= 1.482E-07 alpha_mix =  0.700 |ddv_scf|^2 =  1.628E-13

      iter #   7 total cpu time : 16114.2 secs   av.it.:  11.5
      thresh= 4.034E-08 alpha_mix =  0.700 |ddv_scf|^2 =  6.598E-16

      iter #   8 total cpu time : 16161.4 secs   av.it.:  11.9
      thresh= 2.569E-09 alpha_mix =  0.700 |ddv_scf|^2 =  1.034E-16

      iter #   9 total cpu time : 16209.6 secs   av.it.:  12.1
      thresh= 1.017E-09 alpha_mix =  0.700 |ddv_scf|^2 =  2.671E-17

      iter #  10 total cpu time : 16255.9 secs   av.it.:  11.5
      thresh= 5.169E-10 alpha_mix =  0.700 |ddv_scf|^2 =  5.469E-18

      iter #  11 total cpu time : 16301.7 secs   av.it.:  11.3
      thresh= 2.339E-10 alpha_mix =  0.700 |ddv_scf|^2 =  2.242E-19

     End of self-consistent calculation

     Convergence has been achieved 


     Representation #  28 mode #  28

     Self-consistent Calculation

      iter #   1 total cpu time : 16337.3 secs   av.it.:   5.0
      thresh= 1.000E-02 alpha_mix =  0.700 |ddv_scf|^2 =  7.277E-09

      iter #   2 total cpu time : 16385.5 secs   av.it.:  12.2
      thresh= 8.531E-06 alpha_mix =  0.700 |ddv_scf|^2 =  5.870E-09

      iter #   3 total cpu time : 16432.0 secs   av.it.:  11.5
      thresh= 7.662E-06 alpha_mix =  0.700 |ddv_scf|^2 =  2.777E-10

      iter #   4 total cpu time : 16478.4 secs   av.it.:  11.5
      thresh= 1.666E-06 alpha_mix =  0.700 |ddv_scf|^2 =  6.110E-11

      iter #   5 total cpu time : 16524.3 secs   av.it.:  11.5
      thresh= 7.817E-07 alpha_mix =  0.700 |ddv_scf|^2 =  1.779E-12

      iter #   6 total cpu time : 16571.8 secs   av.it.:  11.7
      thresh= 1.334E-07 alpha_mix =  0.700 |ddv_scf|^2 =  3.920E-13

      iter #   7 total cpu time : 16618.2 secs   av.it.:  11.5
      thresh= 6.261E-08 alpha_mix =  0.700 |ddv_scf|^2 =  1.091E-15

      iter #   8 total cpu time : 16665.5 secs   av.it.:  12.0
      thresh= 3.303E-09 alpha_mix =  0.700 |ddv_scf|^2 =  4.226E-16

      iter #   9 total cpu time : 16712.4 secs   av.it.:  11.8
      thresh= 2.056E-09 alpha_mix =  0.700 |ddv_scf|^2 =  2.902E-17

      iter #  10 total cpu time : 16759.1 secs   av.it.:  11.5
      thresh= 5.387E-10 alpha_mix =  0.700 |ddv_scf|^2 =  4.857E-18

      iter #  11 total cpu time : 16805.8 secs   av.it.:  11.6
      thresh= 2.204E-10 alpha_mix =  0.700 |ddv_scf|^2 =  1.122E-18

      iter #  12 total cpu time : 16852.6 secs   av.it.:  11.7
      thresh= 1.059E-10 alpha_mix =  0.700 |ddv_scf|^2 =  3.258E-20

     End of self-consistent calculation

     Convergence has been achieved 


     Representation #  29 mode #  29

     Self-consistent Calculation

      iter #   1 total cpu time : 16887.2 secs   av.it.:   4.8
      thresh= 1.000E-02 alpha_mix =  0.700 |ddv_scf|^2 =  6.820E-09

      iter #   2 total cpu time : 16934.1 secs   av.it.:  11.8
      thresh= 8.258E-06 alpha_mix =  0.700 |ddv_scf|^2 =  4.455E-09

      iter #   3 total cpu time : 16979.8 secs   av.it.:  11.5
      thresh= 6.674E-06 alpha_mix =  0.700 |ddv_scf|^2 =  2.229E-10

      iter #   4 total cpu time : 17025.5 secs   av.it.:  11.4
      thresh= 1.493E-06 alpha_mix =  0.700 |ddv_scf|^2 =  3.497E-11

      iter #   5 total cpu time : 17072.0 secs   av.it.:  11.6
      thresh= 5.913E-07 alpha_mix =  0.700 |ddv_scf|^2 =  8.570E-13

      iter #   6 total cpu time : 17118.7 secs   av.it.:  11.8
      thresh= 9.257E-08 alpha_mix =  0.700 |ddv_scf|^2 =  6.454E-14

      iter #   7 total cpu time : 17165.1 secs   av.it.:  11.3
      thresh= 2.540E-08 alpha_mix =  0.700 |ddv_scf|^2 =  8.140E-16

      iter #   8 total cpu time : 17211.1 secs   av.it.:  11.4
      thresh= 2.853E-09 alpha_mix =  0.700 |ddv_scf|^2 =  1.621E-17

      iter #   9 total cpu time : 17266.2 secs   av.it.:  11.5
      thresh= 4.027E-10 alpha_mix =  0.700 |ddv_scf|^2 =  2.775E-18

      iter #  10 total cpu time : 17312.5 secs   av.it.:  11.5
      thresh= 1.666E-10 alpha_mix =  0.700 |ddv_scf|^2 =  8.655E-19

     End of self-consistent calculation

     Convergence has been achieved 


     Representation #  30 mode #  30

     Self-consistent Calculation

      iter #   1 total cpu time : 17343.7 secs   av.it.:   3.9
      thresh= 1.000E-02 alpha_mix =  0.700 |ddv_scf|^2 =  5.463E-10

      iter #   2 total cpu time : 17391.8 secs   av.it.:  12.1
      thresh= 2.337E-06 alpha_mix =  0.700 |ddv_scf|^2 =  5.044E-10

      iter #   3 total cpu time : 17438.2 secs   av.it.:  11.5
      thresh= 2.246E-06 alpha_mix =  0.700 |ddv_scf|^2 =  1.679E-11

      iter #   4 total cpu time : 17484.0 secs   av.it.:  11.5
      thresh= 4.097E-07 alpha_mix =  0.700 |ddv_scf|^2 =  7.229E-13

      iter #   5 total cpu time : 17531.2 secs   av.it.:  11.9
      thresh= 8.502E-08 alpha_mix =  0.700 |ddv_scf|^2 =  5.881E-14

      iter #   6 total cpu time : 17578.0 secs   av.it.:  11.8
      thresh= 2.425E-08 alpha_mix =  0.700 |ddv_scf|^2 =  6.666E-15

      iter #   7 total cpu time : 17624.6 secs   av.it.:  11.6
      thresh= 8.164E-09 alpha_mix =  0.700 |ddv_scf|^2 =  1.339E-16

      iter #   8 total cpu time : 17671.2 secs   av.it.:  11.6
      thresh= 1.157E-09 alpha_mix =  0.700 |ddv_scf|^2 =  3.067E-17

      iter #   9 total cpu time : 17717.5 secs   av.it.:  11.5
      thresh= 5.538E-10 alpha_mix =  0.700 |ddv_scf|^2 =  3.236E-18

      iter #  10 total cpu time : 17764.0 secs   av.it.:  11.6
      thresh= 1.799E-10 alpha_mix =  0.700 |ddv_scf|^2 =  9.001E-19

     End of self-consistent calculation

     Convergence has been achieved 


     Representation #  31 mode #  31

     Self-consistent Calculation

      iter #   1 total cpu time : 17797.6 secs   av.it.:   5.0
      thresh= 1.000E-02 alpha_mix =  0.700 |ddv_scf|^2 =  8.400E-09

      iter #   2 total cpu time : 17845.9 secs   av.it.:  12.2
      thresh= 9.165E-06 alpha_mix =  0.700 |ddv_scf|^2 =  8.472E-09

      iter #   3 total cpu time : 17891.9 secs   av.it.:  11.5
      thresh= 9.205E-06 alpha_mix =  0.700 |ddv_scf|^2 =  1.780E-10

      iter #   4 total cpu time : 17938.5 secs   av.it.:  11.4
      thresh= 1.334E-06 alpha_mix =  0.700 |ddv_scf|^2 =  3.246E-11

      iter #   5 total cpu time : 17984.5 secs   av.it.:  11.5
      thresh= 5.698E-07 alpha_mix =  0.700 |ddv_scf|^2 =  1.216E-12

      iter #   6 total cpu time : 18031.1 secs   av.it.:  11.6
      thresh= 1.103E-07 alpha_mix =  0.700 |ddv_scf|^2 =  2.080E-13

      iter #   7 total cpu time : 18078.4 secs   av.it.:  11.5
      thresh= 4.560E-08 alpha_mix =  0.700 |ddv_scf|^2 =  1.670E-15

      iter #   8 total cpu time : 18125.8 secs   av.it.:  12.0
      thresh= 4.086E-09 alpha_mix =  0.700 |ddv_scf|^2 =  8.765E-16

      iter #   9 total cpu time : 18172.9 secs   av.it.:  11.6
      thresh= 2.961E-09 alpha_mix =  0.700 |ddv_scf|^2 =  6.495E-17

      iter #  10 total cpu time : 18219.1 secs   av.it.:  11.4
      thresh= 8.059E-10 alpha_mix =  0.700 |ddv_scf|^2 =  2.977E-18

      iter #  11 total cpu time : 18266.4 secs   av.it.:  11.9
      thresh= 1.725E-10 alpha_mix =  0.700 |ddv_scf|^2 =  6.609E-19

     End of self-consistent calculation

     Convergence has been achieved 


     Representation #  32 mode #  32

     Self-consistent Calculation

      iter #   1 total cpu time : 18301.5 secs   av.it.:   5.0
      thresh= 1.000E-02 alpha_mix =  0.700 |ddv_scf|^2 =  9.532E-09

      iter #   2 total cpu time : 18349.4 secs   av.it.:  12.1
      thresh= 9.763E-06 alpha_mix =  0.700 |ddv_scf|^2 =  9.517E-09

      iter #   3 total cpu time : 18395.6 secs   av.it.:  11.4
      thresh= 9.755E-06 alpha_mix =  0.700 |ddv_scf|^2 =  1.972E-10

      iter #   4 total cpu time : 18441.7 secs   av.it.:  11.4
      thresh= 1.404E-06 alpha_mix =  0.700 |ddv_scf|^2 =  1.755E-11

      iter #   5 total cpu time : 18488.2 secs   av.it.:  11.5
      thresh= 4.189E-07 alpha_mix =  0.700 |ddv_scf|^2 =  1.278E-12

      iter #   6 total cpu time : 18535.3 secs   av.it.:  11.5
      thresh= 1.130E-07 alpha_mix =  0.700 |ddv_scf|^2 =  1.239E-13

      iter #   7 total cpu time : 18582.5 secs   av.it.:  11.5
      thresh= 3.519E-08 alpha_mix =  0.700 |ddv_scf|^2 =  9.692E-16

      iter #   8 total cpu time : 18629.8 secs   av.it.:  12.0
      thresh= 3.113E-09 alpha_mix =  0.700 |ddv_scf|^2 =  6.041E-16

      iter #   9 total cpu time : 18676.0 secs   av.it.:  11.5
      thresh= 2.458E-09 alpha_mix =  0.700 |ddv_scf|^2 =  1.327E-17

      iter #  10 total cpu time : 18721.7 secs   av.it.:  11.3
      thresh= 3.642E-10 alpha_mix =  0.700 |ddv_scf|^2 =  1.314E-18

      iter #  11 total cpu time : 18769.2 secs   av.it.:  12.1
      thresh= 1.146E-10 alpha_mix =  0.700 |ddv_scf|^2 =  4.508E-19

     End of self-consistent calculation

     Convergence has been achieved 


     Representation #  33 mode #  33

     Self-consistent Calculation

      iter #   1 total cpu time : 18803.6 secs   av.it.:   4.9
      thresh= 1.000E-02 alpha_mix =  0.700 |ddv_scf|^2 =  9.376E-09

      iter #   2 total cpu time : 18850.2 secs   av.it.:  11.6
      thresh= 9.683E-06 alpha_mix =  0.700 |ddv_scf|^2 =  1.244E-08

      iter #   3 total cpu time : 18894.4 secs   av.it.:  11.1
      thresh= 1.116E-05 alpha_mix =  0.700 |ddv_scf|^2 =  1.547E-10

      iter #   4 total cpu time : 18939.4 secs   av.it.:  11.2
      thresh= 1.244E-06 alpha_mix =  0.700 |ddv_scf|^2 =  2.332E-11

      iter #   5 total cpu time : 18985.1 secs   av.it.:  11.5
      thresh= 4.829E-07 alpha_mix =  0.700 |ddv_scf|^2 =  5.208E-13

      iter #   6 total cpu time : 19031.7 secs   av.it.:  11.7
      thresh= 7.217E-08 alpha_mix =  0.700 |ddv_scf|^2 =  1.557E-13

      iter #   7 total cpu time : 19077.1 secs   av.it.:  11.3
      thresh= 3.946E-08 alpha_mix =  0.700 |ddv_scf|^2 =  7.015E-16

      iter #   8 total cpu time : 19122.3 secs   av.it.:  11.3
      thresh= 2.649E-09 alpha_mix =  0.700 |ddv_scf|^2 =  2.807E-17

      iter #   9 total cpu time : 19169.5 secs   av.it.:  12.0
      thresh= 5.298E-10 alpha_mix =  0.700 |ddv_scf|^2 =  1.607E-17

      iter #  10 total cpu time : 19215.5 secs   av.it.:  11.4
      thresh= 4.009E-10 alpha_mix =  0.700 |ddv_scf|^2 =  7.036E-19

     End of self-consistent calculation

     Convergence has been achieved 


     Representation #  34 mode #  34

     Self-consistent Calculation

      iter #   1 total cpu time : 19250.7 secs   av.it.:   5.0
      thresh= 1.000E-02 alpha_mix =  0.700 |ddv_scf|^2 =  9.375E-09

      iter #   2 total cpu time : 19298.5 secs   av.it.:  12.1
      thresh= 9.683E-06 alpha_mix =  0.700 |ddv_scf|^2 =  9.234E-09

      iter #   3 total cpu time : 19344.7 secs   av.it.:  11.5
      thresh= 9.610E-06 alpha_mix =  0.700 |ddv_scf|^2 =  2.011E-10

      iter #   4 total cpu time : 19390.5 secs   av.it.:  11.4
      thresh= 1.418E-06 alpha_mix =  0.700 |ddv_scf|^2 =  1.625E-11

      iter #   5 total cpu time : 19437.2 secs   av.it.:  11.5
      thresh= 4.031E-07 alpha_mix =  0.700 |ddv_scf|^2 =  1.296E-12

      iter #   6 total cpu time : 19483.7 secs   av.it.:  11.5
      thresh= 1.138E-07 alpha_mix =  0.700 |ddv_scf|^2 =  1.160E-13

      iter #   7 total cpu time : 19530.1 secs   av.it.:  11.5
      thresh= 3.406E-08 alpha_mix =  0.700 |ddv_scf|^2 =  8.245E-16

      iter #   8 total cpu time : 19577.3 secs   av.it.:  12.0
      thresh= 2.871E-09 alpha_mix =  0.700 |ddv_scf|^2 =  4.809E-16

      iter #   9 total cpu time : 19623.4 secs   av.it.:  11.5
      thresh= 2.193E-09 alpha_mix =  0.700 |ddv_scf|^2 =  1.375E-17

      iter #  10 total cpu time : 19669.0 secs   av.it.:  11.4
      thresh= 3.708E-10 alpha_mix =  0.700 |ddv_scf|^2 =  1.409E-18

      iter #  11 total cpu time : 19716.4 secs   av.it.:  12.0
      thresh= 1.187E-10 alpha_mix =  0.700 |ddv_scf|^2 =  4.376E-19

     End of self-consistent calculation

     Convergence has been achieved 


     Representation #  35 mode #  35

     Self-consistent Calculation

      iter #   1 total cpu time : 19747.1 secs   av.it.:   3.3
      thresh= 1.000E-02 alpha_mix =  0.700 |ddv_scf|^2 =  3.298E-10

      iter #   2 total cpu time : 19794.8 secs   av.it.:  12.0
      thresh= 1.816E-06 alpha_mix =  0.700 |ddv_scf|^2 =  1.971E-10

      iter #   3 total cpu time : 19841.7 secs   av.it.:  11.7
      thresh= 1.404E-06 alpha_mix =  0.700 |ddv_scf|^2 =  2.308E-11

      iter #   4 total cpu time : 19888.3 secs   av.it.:  11.5
      thresh= 4.804E-07 alpha_mix =  0.700 |ddv_scf|^2 =  9.964E-13

      iter #   5 total cpu time : 19935.3 secs   av.it.:  11.9
      thresh= 9.982E-08 alpha_mix =  0.700 |ddv_scf|^2 =  6.987E-14

      iter #   6 total cpu time : 19982.1 secs   av.it.:  11.8
      thresh= 2.643E-08 alpha_mix =  0.700 |ddv_scf|^2 =  1.134E-14

      iter #   7 total cpu time : 20027.3 secs   av.it.:  11.4
      thresh= 1.065E-08 alpha_mix =  0.700 |ddv_scf|^2 =  4.799E-17

      iter #   8 total cpu time : 20075.1 secs   av.it.:  12.0
      thresh= 6.927E-10 alpha_mix =  0.700 |ddv_scf|^2 =  2.130E-17

      iter #   9 total cpu time : 20122.1 secs   av.it.:  11.8
      thresh= 4.615E-10 alpha_mix =  0.700 |ddv_scf|^2 =  5.738E-18

      iter #  10 total cpu time : 20168.7 secs   av.it.:  11.6
      thresh= 2.395E-10 alpha_mix =  0.700 |ddv_scf|^2 =  1.677E-18

      iter #  11 total cpu time : 20215.6 secs   av.it.:  11.6
      thresh= 1.295E-10 alpha_mix =  0.700 |ddv_scf|^2 =  1.925E-19

     End of self-consistent calculation

     Convergence has been achieved 


     Representation #  36 mode #  36

     Self-consistent Calculation

      iter #   1 total cpu time : 20249.6 secs   av.it.:   5.0
      thresh= 1.000E-02 alpha_mix =  0.700 |ddv_scf|^2 =  6.050E-08

      iter #   2 total cpu time : 20294.3 secs   av.it.:  11.4
      thresh= 2.460E-05 alpha_mix =  0.700 |ddv_scf|^2 =  3.408E-08

      iter #   3 total cpu time : 20335.9 secs   av.it.:  10.4
      thresh= 1.846E-05 alpha_mix =  0.700 |ddv_scf|^2 =  1.241E-10

      iter #   4 total cpu time : 20379.5 secs   av.it.:  11.2
      thresh= 1.114E-06 alpha_mix =  0.700 |ddv_scf|^2 =  1.728E-11

      iter #   5 total cpu time : 20422.2 secs   av.it.:  10.7
      thresh= 4.157E-07 alpha_mix =  0.700 |ddv_scf|^2 =  2.077E-13

      iter #   6 total cpu time : 20465.9 secs   av.it.:  11.2
      thresh= 4.557E-08 alpha_mix =  0.700 |ddv_scf|^2 =  3.055E-15

      iter #   7 total cpu time : 20507.9 secs   av.it.:  10.5
      thresh= 5.528E-09 alpha_mix =  0.700 |ddv_scf|^2 =  1.683E-16

      iter #   8 total cpu time : 20549.5 secs   av.it.:  10.4
      thresh= 1.297E-09 alpha_mix =  0.700 |ddv_scf|^2 =  1.242E-18

      iter #   9 total cpu time : 20593.2 secs   av.it.:  11.1
      thresh= 1.115E-10 alpha_mix =  0.700 |ddv_scf|^2 =  8.622E-20

     End of self-consistent calculation

     Convergence has been achieved 


     Representation #  37 mode #  37

     Self-consistent Calculation

      iter #   1 total cpu time : 20627.7 secs   av.it.:   5.0
      thresh= 1.000E-02 alpha_mix =  0.700 |ddv_scf|^2 =  5.408E-08

      iter #   2 total cpu time : 20672.4 secs   av.it.:  11.4
      thresh= 2.326E-05 alpha_mix =  0.700 |ddv_scf|^2 =  2.311E-08

      iter #   3 total cpu time : 20714.5 secs   av.it.:  10.4
      thresh= 1.520E-05 alpha_mix =  0.700 |ddv_scf|^2 =  2.204E-10

      iter #   4 total cpu time : 20758.2 secs   av.it.:  11.3
      thresh= 1.485E-06 alpha_mix =  0.700 |ddv_scf|^2 =  2.884E-11

      iter #   5 total cpu time : 20800.9 secs   av.it.:  10.6
      thresh= 5.370E-07 alpha_mix =  0.700 |ddv_scf|^2 =  1.858E-13

      iter #   6 total cpu time : 20845.8 secs   av.it.:  11.5
      thresh= 4.311E-08 alpha_mix =  0.700 |ddv_scf|^2 =  8.964E-15

      iter #   7 total cpu time : 20889.2 secs   av.it.:  10.5
      thresh= 9.468E-09 alpha_mix =  0.700 |ddv_scf|^2 =  2.144E-16

      iter #   8 total cpu time : 20932.8 secs   av.it.:  10.8
      thresh= 1.464E-09 alpha_mix =  0.700 |ddv_scf|^2 =  1.514E-18

      iter #   9 total cpu time : 20976.9 secs   av.it.:  11.2
      thresh= 1.230E-10 alpha_mix =  0.700 |ddv_scf|^2 =  1.212E-19

     End of self-consistent calculation

     Convergence has been achieved 


     Representation #  38 mode #  38

     Self-consistent Calculation

      iter #   1 total cpu time : 21006.7 secs   av.it.:   3.8
      thresh= 1.000E-02 alpha_mix =  0.700 |ddv_scf|^2 =  2.030E-09

      iter #   2 total cpu time : 21051.2 secs   av.it.:  11.3
      thresh= 4.505E-06 alpha_mix =  0.700 |ddv_scf|^2 =  5.459E-10

      iter #   3 total cpu time : 21093.8 secs   av.it.:  10.6
      thresh= 2.336E-06 alpha_mix =  0.700 |ddv_scf|^2 =  2.059E-11

      iter #   4 total cpu time : 21136.7 secs   av.it.:  10.9
      thresh= 4.538E-07 alpha_mix =  0.700 |ddv_scf|^2 =  1.538E-12

      iter #   5 total cpu time : 21179.9 secs   av.it.:  11.0
      thresh= 1.240E-07 alpha_mix =  0.700 |ddv_scf|^2 =  4.399E-14

      iter #   6 total cpu time : 21224.1 secs   av.it.:  11.3
      thresh= 2.097E-08 alpha_mix =  0.700 |ddv_scf|^2 =  5.810E-16

      iter #   7 total cpu time : 21268.1 secs   av.it.:  11.3
      thresh= 2.410E-09 alpha_mix =  0.700 |ddv_scf|^2 =  4.372E-17

      iter #   8 total cpu time : 21311.9 secs   av.it.:  11.2
      thresh= 6.612E-10 alpha_mix =  0.700 |ddv_scf|^2 =  9.236E-19

     End of self-consistent calculation

     Convergence has been achieved 


     Representation #  39 mode #  39

     Self-consistent Calculation

      iter #   1 total cpu time : 21345.3 secs   av.it.:   5.0
      thresh= 1.000E-02 alpha_mix =  0.700 |ddv_scf|^2 =  6.033E-08

      iter #   2 total cpu time : 21389.8 secs   av.it.:  11.4
      thresh= 2.456E-05 alpha_mix =  0.700 |ddv_scf|^2 =  3.404E-08

      iter #   3 total cpu time : 21443.6 secs   av.it.:  10.4
      thresh= 1.845E-05 alpha_mix =  0.700 |ddv_scf|^2 =  1.216E-10

      iter #   4 total cpu time : 21487.2 secs   av.it.:  11.2
      thresh= 1.103E-06 alpha_mix =  0.700 |ddv_scf|^2 =  1.694E-11

      iter #   5 total cpu time : 21529.9 secs   av.it.:  10.7
      thresh= 4.116E-07 alpha_mix =  0.700 |ddv_scf|^2 =  1.985E-13

      iter #   6 total cpu time : 21573.4 secs   av.it.:  11.2
      thresh= 4.455E-08 alpha_mix =  0.700 |ddv_scf|^2 =  2.978E-15

      iter #   7 total cpu time : 21615.3 secs   av.it.:  10.5
      thresh= 5.457E-09 alpha_mix =  0.700 |ddv_scf|^2 =  1.593E-16

      iter #   8 total cpu time : 21657.0 secs   av.it.:  10.4
      thresh= 1.262E-09 alpha_mix =  0.700 |ddv_scf|^2 =  1.170E-18

      iter #   9 total cpu time : 21700.8 secs   av.it.:  11.2
      thresh= 1.081E-10 alpha_mix =  0.700 |ddv_scf|^2 =  8.532E-20

     End of self-consistent calculation

     Convergence has been achieved 


     Representation #  40 mode #  40

     Self-consistent Calculation

      iter #   1 total cpu time : 21730.7 secs   av.it.:   3.8
      thresh= 1.000E-02 alpha_mix =  0.700 |ddv_scf|^2 =  2.088E-09

      iter #   2 total cpu time : 21774.8 secs   av.it.:  11.3
      thresh= 4.570E-06 alpha_mix =  0.700 |ddv_scf|^2 =  5.503E-10

      iter #   3 total cpu time : 21817.1 secs   av.it.:  10.6
      thresh= 2.346E-06 alpha_mix =  0.700 |ddv_scf|^2 =  2.427E-11

      iter #   4 total cpu time : 21860.1 secs   av.it.:  10.8
      thresh= 4.926E-07 alpha_mix =  0.700 |ddv_scf|^2 =  1.810E-12

      iter #   5 total cpu time : 21903.8 secs   av.it.:  11.1
      thresh= 1.345E-07 alpha_mix =  0.700 |ddv_scf|^2 =  4.155E-14

      iter #   6 total cpu time : 21948.1 secs   av.it.:  11.3
      thresh= 2.038E-08 alpha_mix =  0.700 |ddv_scf|^2 =  5.244E-16

      iter #   7 total cpu time : 21992.3 secs   av.it.:  11.3
      thresh= 2.290E-09 alpha_mix =  0.700 |ddv_scf|^2 =  4.101E-17

      iter #   8 total cpu time : 22036.1 secs   av.it.:  11.2
      thresh= 6.404E-10 alpha_mix =  0.700 |ddv_scf|^2 =  1.197E-18

      iter #   9 total cpu time : 22079.0 secs   av.it.:  10.9
      thresh= 1.094E-10 alpha_mix =  0.700 |ddv_scf|^2 =  4.183E-20

     End of self-consistent calculation

     Convergence has been achieved 


     Representation #  41 mode #  41

     Self-consistent Calculation

      iter #   1 total cpu time : 22112.6 secs   av.it.:   5.0
      thresh= 1.000E-02 alpha_mix =  0.700 |ddv_scf|^2 =  5.384E-08

      iter #   2 total cpu time : 22157.4 secs   av.it.:  11.4
      thresh= 2.320E-05 alpha_mix =  0.700 |ddv_scf|^2 =  2.313E-08

      iter #   3 total cpu time : 22199.3 secs   av.it.:  10.4
      thresh= 1.521E-05 alpha_mix =  0.700 |ddv_scf|^2 =  2.000E-10

      iter #   4 total cpu time : 22243.8 secs   av.it.:  11.3
      thresh= 1.414E-06 alpha_mix =  0.700 |ddv_scf|^2 =  2.516E-11

      iter #   5 total cpu time : 22286.9 secs   av.it.:  10.6
      thresh= 5.016E-07 alpha_mix =  0.700 |ddv_scf|^2 =  1.834E-13

      iter #   6 total cpu time : 22332.3 secs   av.it.:  11.5
      thresh= 4.283E-08 alpha_mix =  0.700 |ddv_scf|^2 =  9.547E-15

      iter #   7 total cpu time : 22374.6 secs   av.it.:  10.5
      thresh= 9.771E-09 alpha_mix =  0.700 |ddv_scf|^2 =  2.335E-16

      iter #   8 total cpu time : 22417.9 secs   av.it.:  10.8
      thresh= 1.528E-09 alpha_mix =  0.700 |ddv_scf|^2 =  1.641E-18

      iter #   9 total cpu time : 22461.8 secs   av.it.:  11.2
      thresh= 1.281E-10 alpha_mix =  0.700 |ddv_scf|^2 =  1.416E-19

     End of self-consistent calculation

     Convergence has been achieved 


     Representation #  42 mode #  42

     Self-consistent Calculation

      iter #   1 total cpu time : 22496.5 secs   av.it.:   5.0
      thresh= 1.000E-02 alpha_mix =  0.700 |ddv_scf|^2 =  6.212E-08

      iter #   2 total cpu time : 22539.3 secs   av.it.:  10.9
      thresh= 2.492E-05 alpha_mix =  0.700 |ddv_scf|^2 =  3.734E-08

      iter #   3 total cpu time : 22579.3 secs   av.it.:   9.9
      thresh= 1.932E-05 alpha_mix =  0.700 |ddv_scf|^2 =  9.195E-11

      iter #   4 total cpu time : 22621.4 secs   av.it.:  10.7
      thresh= 9.589E-07 alpha_mix =  0.700 |ddv_scf|^2 =  5.533E-12

      iter #   5 total cpu time : 22663.4 secs   av.it.:  10.6
      thresh= 2.352E-07 alpha_mix =  0.700 |ddv_scf|^2 =  2.034E-14

      iter #   6 total cpu time : 22704.0 secs   av.it.:  10.2
      thresh= 1.426E-08 alpha_mix =  0.700 |ddv_scf|^2 =  1.678E-15

      iter #   7 total cpu time : 22743.9 secs   av.it.:  10.0
      thresh= 4.097E-09 alpha_mix =  0.700 |ddv_scf|^2 =  5.383E-18

      iter #   8 total cpu time : 22784.0 secs   av.it.:  10.1
      thresh= 2.320E-10 alpha_mix =  0.700 |ddv_scf|^2 =  3.810E-19

     End of self-consistent calculation

     Convergence has been achieved 
 
[...]
      thresh= 3.868E-10 alpha_mix =  0.700 |ddv_scf|^2 =  1.773E-18

      iter #  13 total cpu time : 91316.4 secs   av.it.:  10.9
      thresh= 1.332E-10 alpha_mix =  0.700 |ddv_scf|^2 =  1.423E-19

     End of self-consistent calculation

     Convergence has been achieved 


     Representation #  36 mode #  36

     Self-consistent Calculation

      iter #   1 total cpu time : 91342.4 secs   av.it.:   5.0
      thresh= 1.000E-02 alpha_mix =  0.700 |ddv_scf|^2 =  1.115E-08

      iter #   2 total cpu time : 91389.9 secs   av.it.:  12.1
      thresh= 1.056E-05 alpha_mix =  0.700 |ddv_scf|^2 =  1.081E-09

      iter #   3 total cpu time : 91436.3 secs   av.it.:  11.7
      thresh= 3.288E-06 alpha_mix =  0.700 |ddv_scf|^2 =  2.380E-11

      iter #   4 total cpu time : 91480.1 secs   av.it.:  11.0
      thresh= 4.878E-07 alpha_mix =  0.700 |ddv_scf|^2 =  5.810E-13

      iter #   5 total cpu time : 91526.5 secs   av.it.:  11.5
      thresh= 7.622E-08 alpha_mix =  0.700 |ddv_scf|^2 =  1.185E-15

      iter #   6 total cpu time : 91572.9 secs   av.it.:  11.5
      thresh= 3.443E-09 alpha_mix =  0.700 |ddv_scf|^2 =  5.304E-17

      iter #   7 total cpu time : 91615.4 secs   av.it.:  10.5
      thresh= 7.283E-10 alpha_mix =  0.700 |ddv_scf|^2 =  2.064E-19

     End of self-consistent calculation

     Convergence has been achieved 


     Representation #  37 mode #  37

     Self-consistent Calculation

      iter #   1 total cpu time : 91641.7 secs   av.it.:   5.0
      thresh= 1.000E-02 alpha_mix =  0.700 |ddv_scf|^2 =  1.109E-08

      iter #   2 total cpu time : 91689.4 secs   av.it.:  12.1
      thresh= 1.053E-05 alpha_mix =  0.700 |ddv_scf|^2 =  1.070E-09

      iter #   3 total cpu time : 91735.6 secs   av.it.:  11.7
      thresh= 3.271E-06 alpha_mix =  0.700 |ddv_scf|^2 =  2.201E-11

      iter #   4 total cpu time : 91779.4 secs   av.it.:  11.0
      thresh= 4.692E-07 alpha_mix =  0.700 |ddv_scf|^2 =  5.791E-13

      iter #   5 total cpu time : 91825.7 secs   av.it.:  11.5
      thresh= 7.610E-08 alpha_mix =  0.700 |ddv_scf|^2 =  1.152E-15

      iter #   6 total cpu time : 91872.1 secs   av.it.:  11.5
      thresh= 3.394E-09 alpha_mix =  0.700 |ddv_scf|^2 =  5.278E-17

      iter #   7 total cpu time : 91915.0 secs   av.it.:  10.5
      thresh= 7.265E-10 alpha_mix =  0.700 |ddv_scf|^2 =  2.090E-19

     End of self-consistent calculation

     Convergence has been achieved 


     Representation #  38 mode #  38

     Self-consistent Calculation

      iter #   1 total cpu time : 91936.1 secs   av.it.:   3.0
      thresh= 1.000E-02 alpha_mix =  0.700 |ddv_scf|^2 =  3.383E-10

      iter #   2 total cpu time : 91982.9 secs   av.it.:  11.7
      thresh= 1.839E-06 alpha_mix =  0.700 |ddv_scf|^2 =  1.714E-11

      iter #   3 total cpu time : 92029.2 secs   av.it.:  11.5
      thresh= 4.140E-07 alpha_mix =  0.700 |ddv_scf|^2 =  1.598E-12

      iter #   4 total cpu time : 92074.7 secs   av.it.:  11.5
      thresh= 1.264E-07 alpha_mix =  0.700 |ddv_scf|^2 =  4.023E-14

      iter #   5 total cpu time : 92119.2 secs   av.it.:  11.0
      thresh= 2.006E-08 alpha_mix =  0.700 |ddv_scf|^2 =  8.143E-16

      iter #   6 total cpu time : 92165.5 secs   av.it.:  11.8
      thresh= 2.854E-09 alpha_mix =  0.700 |ddv_scf|^2 =  2.699E-17

      iter #   7 total cpu time : 92211.5 secs   av.it.:  11.5
      thresh= 5.195E-10 alpha_mix =  0.700 |ddv_scf|^2 =  5.485E-19

     End of self-consistent calculation

     Convergence has been achieved 


     Representation #  39 mode #  39

     Self-consistent Calculation

      iter #   1 total cpu time : 92236.7 secs   av.it.:   5.0
      thresh= 1.000E-02 alpha_mix =  0.700 |ddv_scf|^2 =  4.088E-09

      iter #   2 total cpu time : 92284.7 secs   av.it.:  11.9
      thresh= 6.394E-06 alpha_mix =  0.700 |ddv_scf|^2 =  2.828E-10

      iter #   3 total cpu time : 92330.6 secs   av.it.:  11.5
      thresh= 1.682E-06 alpha_mix =  0.700 |ddv_scf|^2 =  2.205E-11

      iter #   4 total cpu time : 92374.9 secs   av.it.:  11.0
      thresh= 4.696E-07 alpha_mix =  0.700 |ddv_scf|^2 =  3.783E-13

      iter #   5 total cpu time : 92421.0 secs   av.it.:  11.6
      thresh= 6.150E-08 alpha_mix =  0.700 |ddv_scf|^2 =  3.485E-15

      iter #   6 total cpu time : 92468.0 secs   av.it.:  11.7
      thresh= 5.903E-09 alpha_mix =  0.700 |ddv_scf|^2 =  1.064E-16

      iter #   7 total cpu time : 92511.6 secs   av.it.:  10.9
      thresh= 1.031E-09 alpha_mix =  0.700 |ddv_scf|^2 =  2.156E-18

      iter #   8 total cpu time : 92555.0 secs   av.it.:  10.9
      thresh= 1.468E-10 alpha_mix =  0.700 |ddv_scf|^2 =  8.656E-21

     End of self-consistent calculation

     Convergence has been achieved 


     Representation #  40 mode #  40

     Self-consistent Calculation

      iter #   1 total cpu time : 92579.6 secs   av.it.:   4.6
      thresh= 1.000E-02 alpha_mix =  0.700 |ddv_scf|^2 =  4.693E-09

      iter #   2 total cpu time : 92625.4 secs   av.it.:  11.2
      thresh= 6.850E-06 alpha_mix =  0.700 |ddv_scf|^2 =  4.602E-10

      iter #   3 total cpu time : 92670.0 secs   av.it.:  10.9
      thresh= 2.145E-06 alpha_mix =  0.700 |ddv_scf|^2 =  2.320E-11

      iter #   4 total cpu time : 92712.3 secs   av.it.:  10.1
      thresh= 4.817E-07 alpha_mix =  0.700 |ddv_scf|^2 =  1.193E-13

      iter #   5 total cpu time : 92755.2 secs   av.it.:  10.9
      thresh= 3.453E-08 alpha_mix =  0.700 |ddv_scf|^2 =  3.341E-16

      iter #   6 total cpu time : 92798.1 secs   av.it.:  10.7
      thresh= 1.828E-09 alpha_mix =  0.700 |ddv_scf|^2 =  2.264E-17

      iter #   7 total cpu time : 92838.7 secs   av.it.:  10.0
      thresh= 4.758E-10 alpha_mix =  0.700 |ddv_scf|^2 =  4.558E-20

     End of self-consistent calculation

     Convergence has been achieved 


     Representation #  41 mode #  41

     Self-consistent Calculation

      iter #   1 total cpu time : 92859.3 secs   av.it.:   3.0
      thresh= 1.000E-02 alpha_mix =  0.700 |ddv_scf|^2 =  3.541E-10

      iter #   2 total cpu time : 92906.2 secs   av.it.:  11.7
      thresh= 1.882E-06 alpha_mix =  0.700 |ddv_scf|^2 =  1.767E-11

      iter #   3 total cpu time : 92952.8 secs   av.it.:  11.5
      thresh= 4.204E-07 alpha_mix =  0.700 |ddv_scf|^2 =  1.630E-12

      iter #   4 total cpu time : 92998.5 secs   av.it.:  11.5
      thresh= 1.277E-07 alpha_mix =  0.700 |ddv_scf|^2 =  3.506E-14

      iter #   5 total cpu time : 93042.7 secs   av.it.:  11.0
      thresh= 1.872E-08 alpha_mix =  0.700 |ddv_scf|^2 =  6.174E-16

      iter #   6 total cpu time : 93089.2 secs   av.it.:  11.9
      thresh= 2.485E-09 alpha_mix =  0.700 |ddv_scf|^2 =  2.228E-17

      iter #   7 total cpu time : 93135.2 secs   av.it.:  11.5
      thresh= 4.721E-10 alpha_mix =  0.700 |ddv_scf|^2 =  5.545E-19

     End of self-consistent calculation

     Convergence has been achieved 


     Representation #  42 mode #  42

     Self-consistent Calculation

      iter #   1 total cpu time : 93160.1 secs   av.it.:   5.0
      thresh= 1.000E-02 alpha_mix =  0.700 |ddv_scf|^2 =  4.245E-09

      iter #   2 total cpu time : 93207.3 secs   av.it.:  11.9
      thresh= 6.515E-06 alpha_mix =  0.700 |ddv_scf|^2 =  2.891E-10

      iter #   3 total cpu time : 93253.3 secs   av.it.:  11.5
      thresh= 1.700E-06 alpha_mix =  0.700 |ddv_scf|^2 =  2.286E-11

      iter #   4 total cpu time : 93297.5 secs   av.it.:  11.1
      thresh= 4.781E-07 alpha_mix =  0.700 |ddv_scf|^2 =  3.697E-13

      iter #   5 total cpu time : 93343.3 secs   av.it.:  11.5
      thresh= 6.081E-08 alpha_mix =  0.700 |ddv_scf|^2 =  3.231E-15

      iter #   6 total cpu time : 93389.9 secs   av.it.:  11.8
      thresh= 5.684E-09 alpha_mix =  0.700 |ddv_scf|^2 =  7.601E-17

      iter #   7 total cpu time : 93433.6 secs   av.it.:  11.0
      thresh= 8.718E-10 alpha_mix =  0.700 |ddv_scf|^2 =  2.277E-18

      iter #   8 total cpu time : 93476.7 secs   av.it.:  10.9
      thresh= 1.509E-10 alpha_mix =  0.700 |ddv_scf|^2 =  8.365E-21

     End of self-consistent calculation

     Convergence has been achieved 
 
     Number of q in the star =    1
     List of q in the star:
          1  -0.500000000   0.000000000   0.000000000

     Diagonalizing the dynamical matrix

     q = (   -0.500000000   0.000000000   0.000000000 ) 

 **************************************************************************
     freq (    1) =       2.721591 [THz] =      90.782519 [cm-1]
     freq (    2) =       3.204140 [THz] =     106.878607 [cm-1]
     freq (    3) =       5.113933 [THz] =     170.582457 [cm-1]
     freq (    4) =       6.875105 [THz] =     229.328831 [cm-1]
     freq (    5) =       7.601840 [THz] =     253.570103 [cm-1]
     freq (    6) =      10.280621 [THz] =     342.924614 [cm-1]
     freq (    7) =      11.282392 [THz] =     376.340097 [cm-1]
     freq (    8) =      14.166163 [THz] =     472.532325 [cm-1]
     freq (    9) =      14.579396 [THz] =     486.316315 [cm-1]
     freq (   10) =      16.099585 [THz] =     537.024358 [cm-1]
     freq (   11) =      16.864474 [THz] =     562.538300 [cm-1]
     freq (   12) =      18.441120 [THz] =     615.129562 [cm-1]
     freq (   13) =      18.954260 [THz] =     632.246061 [cm-1]
     freq (   14) =      19.044641 [THz] =     635.260855 [cm-1]
     freq (   15) =      20.226855 [THz] =     674.695249 [cm-1]
     freq (   16) =      20.874639 [THz] =     696.303008 [cm-1]
     freq (   17) =      24.220989 [THz] =     807.925225 [cm-1]
     freq (   18) =      24.286465 [THz] =     810.109286 [cm-1]
     freq (   19) =      24.526481 [THz] =     818.115345 [cm-1]
     freq (   20) =      24.980387 [THz] =     833.256029 [cm-1]
     freq (   21) =      25.014299 [THz] =     834.387200 [cm-1]
     freq (   22) =      28.535294 [THz] =     951.834937 [cm-1]
     freq (   23) =      28.563665 [THz] =     952.781300 [cm-1]
     freq (   24) =      33.170325 [THz] =    1106.442931 [cm-1]
     freq (   25) =      33.382100 [THz] =    1113.506991 [cm-1]
     freq (   26) =      34.276582 [THz] =    1143.343695 [cm-1]
     freq (   27) =      35.309116 [THz] =    1177.785319 [cm-1]
     freq (   28) =      38.737985 [THz] =    1292.160101 [cm-1]
     freq (   29) =      40.101298 [THz] =    1337.635332 [cm-1]
     freq (   30) =      40.538577 [THz] =    1352.221364 [cm-1]
     freq (   31) =      41.559927 [THz] =    1386.289936 [cm-1]
     freq (   32) =      42.026582 [THz] =    1401.855865 [cm-1]
     freq (   33) =      42.685719 [THz] =    1423.842340 [cm-1]
     freq (   34) =      43.403179 [THz] =    1447.774210 [cm-1]
     freq (   35) =      45.762153 [THz] =    1526.461121 [cm-1]
     freq (   36) =      46.384093 [THz] =    1547.206813 [cm-1]
     freq (   37) =      47.284126 [THz] =    1577.228685 [cm-1]
     freq (   38) =      48.349663 [THz] =    1612.771152 [cm-1]
     freq (   39) =      93.843705 [THz] =    3130.289062 [cm-1]
     freq (   40) =      93.902900 [THz] =    3132.263593 [cm-1]
     freq (   41) =      93.949253 [THz] =    3133.809753 [cm-1]
     freq (   42) =      94.008112 [THz] =    3135.773083 [cm-1]
 **************************************************************************

     Mode symmetry, C_2v (mm2)  point group:

     freq (   1-   1) =         90.8  [cm-1]   --> A_2  D_2  S_2      
     freq (   2-   2) =        106.9  [cm-1]   --> A_2  D_2  S_2      
     freq (   3-   3) =        170.6  [cm-1]   --> B_2  D_4  S_4      
     freq (   4-   4) =        229.3  [cm-1]   --> B_2  D_4  S_4      
     freq (   5-   5) =        253.6  [cm-1]   --> A_2  D_2  S_2      
     freq (   6-   6) =        342.9  [cm-1]   --> A_1  D_1  S_1      
     freq (   7-   7) =        376.3  [cm-1]   --> B_1  D_3  S_3      
     freq (   8-   8) =        472.5  [cm-1]   --> A_1  D_1  S_1      
     freq (   9-   9) =        486.3  [cm-1]   --> B_2  D_4  S_4      
     freq (  10-  10) =        537.0  [cm-1]   --> B_1  D_3  S_3      
     freq (  11-  11) =        562.5  [cm-1]   --> A_2  D_2  S_2      
     freq (  12-  12) =        615.1  [cm-1]   --> B_1  D_3  S_3      
     freq (  13-  13) =        632.2  [cm-1]   --> A_1  D_1  S_1      
     freq (  14-  14) =        635.3  [cm-1]   --> B_2  D_4  S_4      
     freq (  15-  15) =        674.7  [cm-1]   --> A_1  D_1  S_1      
     freq (  16-  16) =        696.3  [cm-1]   --> A_2  D_2  S_2      
     freq (  17-  17) =        807.9  [cm-1]   --> B_2  D_4  S_4      
     freq (  18-  18) =        810.1  [cm-1]   --> A_2  D_2  S_2      
     freq (  19-  19) =        818.1  [cm-1]   --> B_1  D_3  S_3      
     freq (  20-  20) =        833.3  [cm-1]   --> A_1  D_1  S_1      
     freq (  21-  21) =        834.4  [cm-1]   --> A_2  D_2  S_2      
     freq (  22-  22) =        951.8  [cm-1]   --> B_2  D_4  S_4      
     freq (  23-  23) =        952.8  [cm-1]   --> B_2  D_4  S_4      
     freq (  24-  24) =       1106.4  [cm-1]   --> B_1  D_3  S_3      
     freq (  25-  25) =       1113.5  [cm-1]   --> A_1  D_1  S_1      
     freq (  26-  26) =       1143.3  [cm-1]   --> B_1  D_3  S_3      
     freq (  27-  27) =       1177.8  [cm-1]   --> B_1  D_3  S_3      
     freq (  28-  28) =       1292.2  [cm-1]   --> A_1  D_1  S_1      
     freq (  29-  29) =       1337.6  [cm-1]   --> A_1  D_1  S_1      
     freq (  30-  30) =       1352.2  [cm-1]   --> B_1  D_3  S_3      
     freq (  31-  31) =       1386.3  [cm-1]   --> B_1  D_3  S_3      
     freq (  32-  32) =       1401.9  [cm-1]   --> B_1  D_3  S_3      
     freq (  33-  33) =       1423.8  [cm-1]   --> A_1  D_1  S_1      
     freq (  34-  34) =       1447.8  [cm-1]   --> A_1  D_1  S_1      
     freq (  35-  35) =       1526.5  [cm-1]   --> A_1  D_1  S_1      
     freq (  36-  36) =       1547.2  [cm-1]   --> A_1  D_1  S_1      
     freq (  37-  37) =       1577.2  [cm-1]   --> B_1  D_3  S_3      
     freq (  38-  38) =       1612.8  [cm-1]   --> B_1  D_3  S_3      
     freq (  39-  39) =       3130.3  [cm-1]   --> A_1  D_1  S_1      
     freq (  40-  40) =       3132.3  [cm-1]   --> A_1  D_1  S_1      
     freq (  41-  41) =       3133.8  [cm-1]   --> B_1  D_3  S_3      
     freq (  42-  42) =       3135.8  [cm-1]   --> B_1  D_3  S_3      
 
     init_run     :      2.04s CPU      2.12s WALL (       2 calls)
     electrons    :    266.17s CPU    278.65s WALL (       2 calls)

     Called by init_run:
     wfcinit      :      0.00s CPU      0.00s WALL (       2 calls)
     potinit      :      0.22s CPU      0.26s WALL (       2 calls)
     hinit0       :      0.80s CPU      0.80s WALL (       2 calls)

     Called by electrons:
     c_bands      :    266.17s CPU    278.64s WALL (       2 calls)
     v_of_rho     :      0.17s CPU      0.19s WALL (       3 calls)
     newd         :      0.13s CPU      0.14s WALL (       3 calls)

     Called by c_bands:
     init_us_2    :    228.88s CPU    232.76s WALL (   49690 calls)
     cegterg      :    231.06s CPU    241.48s WALL (     128 calls)

     Called by *egterg:
     cdiaghg      :     18.95s CPU     19.12s WALL (    1996 calls)
     h_psi        :  52777.37s CPU  56448.54s WALL (  751489 calls)
     s_psi        :   7029.29s CPU   7084.14s WALL ( 1545642 calls)
     g_psi        :      1.47s CPU      1.49s WALL (    1874 calls)

     Called by h_psi:
     h_psi:calbec :   3684.23s CPU   3737.18s WALL (  751489 calls)
     vloc_psi     :  45128.08s CPU  48702.62s WALL (  751489 calls)
     add_vuspsi   :   3375.56s CPU   3413.24s WALL (  751489 calls)

     General routines
     calbec       :   8396.09s CPU   8483.51s WALL ( 1651050 calls)
     fft          :    242.28s CPU    248.42s WALL (   20789 calls)
     ffts         :     33.40s CPU     36.04s WALL (    9744 calls)
     fftw         :  49230.01s CPU  53387.69s WALL (26070802 calls)
     davcio       :     67.37s CPU    264.86s WALL (  255503 calls)
 
     Parallel routines
     fft_scatt_xy :   5457.92s CPU   5593.08s WALL (26101335 calls)
     fft_scatt_yz :  25164.65s CPU  28605.88s WALL (26101335 calls)
 
     PHONON       :   1d 0h34m CPU   1d 1h57m WALL

     INITIALIZATION: 
     phq_setup    :      0.30s CPU      0.33s WALL (       3 calls)
     phq_init     :    365.03s CPU    380.21s WALL (       3 calls)
 
     phq_init     :    365.03s CPU    380.21s WALL (       3 calls)
     init_vloc    :      0.62s CPU      0.62s WALL (       3 calls)
     init_us_1    :      0.49s CPU      0.50s WALL (       3 calls)
     newd         :      0.13s CPU      0.14s WALL (       3 calls)
     dvanqq       :     35.70s CPU     35.80s WALL (       3 calls)
     drho         :    318.24s CPU    332.99s WALL (       3 calls)
 
     DYNAMICAL MATRIX:
     dynmat0      :      6.76s CPU      6.89s WALL (       3 calls)
     phqscf       :  85229.44s CPU  90091.83s WALL (       3 calls)
     dynmatrix    :      0.09s CPU      0.47s WALL (       3 calls)
 
     phqscf       :  85229.44s CPU  90091.83s WALL (       3 calls)
     solve_linter :  84723.09s CPU  89544.63s WALL (     126 calls)
     drhodv       :    150.83s CPU    156.82s WALL (     126 calls)
 
     dynmat0      :      6.76s CPU      6.89s WALL (       3 calls)
     dynmat_us    :      5.23s CPU      5.34s WALL (       3 calls)
     d2ionq       :      1.51s CPU      1.52s WALL (       3 calls)
 
     dynmat_us    :      5.23s CPU      5.34s WALL (       3 calls)
     addusdynmat  :      0.00s CPU      0.00s WALL (       3 calls)
 
     phqscf       :  85229.44s CPU  90091.83s WALL (       3 calls)
     solve_linter :  84723.09s CPU  89544.63s WALL (     126 calls)
 
     solve_linter :  84723.09s CPU  89544.63s WALL (     126 calls)
     dvqpsi_us    :    516.53s CPU    550.60s WALL (    4326 calls)
     ortho        :    911.29s CPU    919.97s WALL (   44725 calls)
     cgsolve      :  73560.87s CPU  77394.33s WALL (   44725 calls)
     incdrhoscf   :   5629.80s CPU   6002.19s WALL (   44725 calls)
     addusddens   :    281.31s CPU    283.63s WALL (    1661 calls)
     vpsifft      :   3826.37s CPU   4141.25s WALL (   40210 calls)
     dv_of_drho   :    238.10s CPU    244.31s WALL (    1586 calls)
     mix_pot      :     11.89s CPU     22.12s WALL (    1551 calls)
     psymdvscf    :    650.16s CPU    677.71s WALL (    1535 calls)
     newdq        :    299.36s CPU    301.08s WALL (    1551 calls)
     adddvscf     :    546.44s CPU    551.44s WALL (   41155 calls)
     drhodvus     :      1.53s CPU      2.81s WALL (     126 calls)
 
     dvqpsi_us    :    516.53s CPU    550.60s WALL (    4326 calls)
     dvqpsi_us_on :     90.32s CPU     90.97s WALL (    4326 calls)
 
     cgsolve      :  73560.87s CPU  77394.33s WALL (   44725 calls)
     ch_psi       :  69790.65s CPU  73588.40s WALL (  749365 calls)
 
     ch_psi       :  69790.65s CPU  73588.40s WALL (  749365 calls)
     h_psi        :  52777.37s CPU  56448.54s WALL (  751489 calls)
     last         :  12721.64s CPU  12818.79s WALL (  749365 calls)
 
     h_psi        :  52777.37s CPU  56448.54s WALL (  751489 calls)
     add_vuspsi   :   3375.56s CPU   3413.24s WALL (  751489 calls)
 
     incdrhoscf   :   5629.80s CPU   6002.19s WALL (   44725 calls)
     addusdbec    :    315.62s CPU    319.14s WALL (   48169 calls)
 
     drhodvus     :      1.53s CPU      2.81s WALL (     126 calls)
 
      General routines
     calbec       :   8396.09s CPU   8483.51s WALL ( 1651050 calls)
     fft          :    242.28s CPU    248.42s WALL (   20789 calls)
     ffts         :     33.40s CPU     36.04s WALL (    9744 calls)
     fftw         :  49230.01s CPU  53387.69s WALL (26070802 calls)
     davcio       :     67.37s CPU    264.86s WALL (  255503 calls)
     write_rec    :      1.50s CPU    161.00s WALL (    1677 calls)
 
 
     PHONON       :   1d 0h34m CPU   1d 1h57m WALL

 
   This run was terminated on:  16:40:36  10Feb2022            

=------------------------------------------------------------------------------=
   JOB DONE.
=------------------------------------------------------------------------------=
