
     Program Q2R v.6.7MaX starts on 10Feb2022 at 16:40:36 

     This program is part of the open-source Quantum ESPRESSO suite
     for quantum simulation of materials; please cite
         "P. Giannozzi et al., J. Phys.:Condens. Matter 21 395502 (2009);
         "P. Giannozzi et al., J. Phys.:Condens. Matter 29 465901 (2017);
          URL http://www.quantum-espresso.org", 
     in publications or presentations arising from this work. More details at
     http://www.quantum-espresso.org/quote

     Parallel version (MPI), running on     1 processors

     MPI processes distributed on     1 nodes

     reading grid info from file 5AGNR.dyn0    
  reading force constants from file 5AGNR.dyn1
 macroscopic fields = T
  11.81824   0.00000   0.00000
   0.00000   1.23557   0.00000
   0.00000   0.00000   1.08608
  na=            1
  -0.17053   2.12835   0.00000
  -0.04767   0.06615   0.00000
   0.00000   0.00000  -0.11729
  na=            2
  -0.62877   0.83495   0.00000
   0.15653  -0.01854   0.00000
   0.00000   0.00000   0.00275
  na=            3
  -0.17053  -2.12835   0.00000
   0.04767   0.06615   0.00000
   0.00000   0.00000  -0.11729
  na=            4
   1.37341   0.00173   0.00000
  -0.00007  -0.01537   0.00000
   0.00000   0.00000   0.00783
  na=            5
  -0.62878  -0.83085   0.00000
  -0.15642  -0.01845   0.00000
   0.00000   0.00000   0.00272
  na=            6
  -0.62877  -0.83495   0.00000
  -0.15653  -0.01854   0.00000
   0.00000   0.00000   0.00275
  na=            7
   1.37341  -0.00173   0.00000
   0.00007  -0.01537   0.00000
   0.00000   0.00000   0.00783
  na=            8
  -0.17131  -2.13371   0.00000
   0.04769   0.06578   0.00000
   0.00000   0.00000  -0.11725
  na=            9
  -0.62878   0.83085   0.00000
   0.15642  -0.01845   0.00000
   0.00000   0.00000   0.00272
  na=           10
  -0.17131   2.13371   0.00000
  -0.04769   0.06578   0.00000
   0.00000   0.00000  -0.11725
  na=           11
   0.11052  -0.04173   0.00000
   0.09212  -0.04029   0.00000
   0.00000   0.00000   0.11102
  na=           12
   0.11052   0.04173   0.00000
  -0.09212  -0.04029   0.00000
   0.00000   0.00000   0.11102
  na=           13
   0.11093   0.04157   0.00000
  -0.09227  -0.04010   0.00000
   0.00000   0.00000   0.11104
  na=           14
   0.11093  -0.04157   0.00000
   0.09227  -0.04010   0.00000
   0.00000   0.00000   0.11104
  nqs=            1
 q=   0.00000000  0.00000000  0.00000000
  reading force constants from file 5AGNR.dyn2
  nqs=            2
 q=   0.25000000  0.00000000  0.00000000
 q=  -0.25000000  0.00000000  0.00000000
  reading force constants from file 5AGNR.dyn3
  nqs=            1
 q=  -0.50000000  0.00000000  0.00000000

      q-space grid ok, #points =    4

      fft-check success (sum of imaginary terms < 10^-12)
 
     Q2R          :      0.02s CPU      0.05s WALL

 
   This run was terminated on:  16:40:37  10Feb2022            

=------------------------------------------------------------------------------=
   JOB DONE.
=------------------------------------------------------------------------------=
