
     Program PWSCF v.6.7MaX starts on 18Feb2022 at 11:50:32 

     This program is part of the open-source Quantum ESPRESSO suite
     for quantum simulation of materials; please cite
         "P. Giannozzi et al., J. Phys.:Condens. Matter 21 395502 (2009);
         "P. Giannozzi et al., J. Phys.:Condens. Matter 29 465901 (2017);
          URL http://www.quantum-espresso.org", 
     in publications or presentations arising from this work. More details at
     http://www.quantum-espresso.org/quote

     Parallel version (MPI), running on    20 processors

     MPI processes distributed on     1 nodes
     R & G space division:  proc/nbgrp/npool/nimage =      20
     Waiting for input...
     Reading input from standard input

     Current dimensions of program PWSCF are:
     Max number of different atomic species (ntypx) = 10
     Max number of k-points (npk) =  40000
     Max angular momentum in pseudopotentials (lmaxx) =  3
     file C.pbe-rrkjus.UPF: wavefunction(s)  2S 2P renormalized
     Message from routine set_cutoff:
     ecutrho < 4*ecutwfc, are you sure?

     Subspace diagonalization in iterative solution of the eigenvalue problem:
     one sub-group per band group will be used
     scalapack distributed-memory algorithm (size of sub-group:  4*  4 procs)

 
     Parallelization info
     --------------------
     sticks:   dense  smooth     PW     G-vecs:    dense   smooth      PW
     Min          20      20      8                 2643     2643     660
     Max          23      23      9                 2654     2654     683
     Sum         409     409    163                52949    52949   13511
 


     bravais-lattice index     =            4
     lattice parameter (alat)  =       4.6531  a.u.
     unit-cell volume          =     708.6620 (a.u.)^3
     number of atoms/cell      =            2
     number of atomic types    =            1
     number of electrons       =         8.00
     number of Kohn-Sham states=            8
     kinetic-energy cutoff     =      90.0000  Ry
     charge density cutoff     =     270.0000  Ry
     scf convergence threshold =      1.0E-10
     mixing beta               =       0.5000
     number of iterations used =            8  local-TF  mixing
     Exchange-correlation=  SLA  PW   PBE  PBE
                           (   1   4   3   4   0   0   0)

     celldm(1)=   4.653073  celldm(2)=   0.000000  celldm(3)=   8.122487
     celldm(4)=   0.000000  celldm(5)=   0.000000  celldm(6)=   0.000000

     crystal axes: (cart. coord. in units of alat)
               a(1) = (   1.000000   0.000000   0.000000 )  
               a(2) = (  -0.500000   0.866025   0.000000 )  
               a(3) = (   0.000000   0.000000   8.122487 )  

     reciprocal axes: (cart. coord. in units 2 pi/alat)
               b(1) = (  1.000000  0.577350  0.000000 )  
               b(2) = (  0.000000  1.154701  0.000000 )  
               b(3) = (  0.000000  0.000000  0.123115 )  


     PseudoPot. # 1 for C  read from file:
     ../Pseudo/C.pbe-rrkjus.UPF
     MD5 check sum: 00fb224312de0c5b6853bd333518df6f
     Pseudo is Ultrasoft, Zval =  4.0
     Generated by new atomic code, or converted to UPF format
     Using radial grid of  627 points,  4 beta functions with: 
                l(1) =   0
                l(2) =   0
                l(3) =   1
                l(4) =   1
     Q(r) pseudized with 0 coefficients 


     atomic species   valence    mass     pseudopotential
        C              4.00    12.01070     C ( 1.00)

     24 Sym. Ops., with inversion, found



   Cartesian axes

     site n.     atom                  positions (alat units)
         1           C   tau(   1) = (   0.0000000   0.5773503   4.0612436  )
         2           C   tau(   2) = (   0.5000000   0.2886751   4.0612436  )

     number of k points=    19  Methfessel-Paxton smearing, width (Ry)=  0.0200
                       cart. coord. in units 2pi/alat
        k(    1) = (   0.0000000   0.0000000   0.0000000), wk =   0.0138889
        k(    2) = (   0.0000000   0.0962250   0.0000000), wk =   0.0833333
        k(    3) = (   0.0000000   0.1924501   0.0000000), wk =   0.0833333
        k(    4) = (   0.0000000   0.2886751   0.0000000), wk =   0.0833333
        k(    5) = (   0.0000000   0.3849002   0.0000000), wk =   0.0833333
        k(    6) = (   0.0000000   0.4811252   0.0000000), wk =   0.0833333
        k(    7) = (   0.0000000  -0.5773503   0.0000000), wk =   0.0416667
        k(    8) = (   0.0833333   0.1443376   0.0000000), wk =   0.0833333
        k(    9) = (   0.0833333   0.2405626   0.0000000), wk =   0.1666667
        k(   10) = (   0.0833333   0.3367877   0.0000000), wk =   0.1666667
        k(   11) = (   0.0833333   0.4330127   0.0000000), wk =   0.1666667
        k(   12) = (   0.0833333   0.5292377   0.0000000), wk =   0.1666667
        k(   13) = (   0.1666667   0.2886751   0.0000000), wk =   0.0833333
        k(   14) = (   0.1666667   0.3849002   0.0000000), wk =   0.1666667
        k(   15) = (   0.1666667   0.4811252   0.0000000), wk =   0.1666667
        k(   16) = (   0.1666667   0.5773503   0.0000000), wk =   0.0833333
        k(   17) = (   0.2500000   0.4330127   0.0000000), wk =   0.0833333
        k(   18) = (   0.2500000   0.5292377   0.0000000), wk =   0.1666667
        k(   19) = (   0.3333333   0.5773503   0.0000000), wk =   0.0277778

     Dense  grid:    52949 G-vectors     FFT dimensions: (  25,  25, 200)

     Estimated max dynamical RAM per process >       5.30 MB

     Estimated total dynamical RAM >     106.08 MB

     Initial potential from superposition of free atoms

     starting charge    7.99989, renormalised to    8.00000

     negative rho (up, down):  5.374E-05 0.000E+00
     Starting wfcs are    8 randomized atomic wfcs

     total cpu time spent up to now is        0.6 secs

     Self-consistent Calculation

     iteration #  1     ecut=    90.00 Ry     beta= 0.50
     Davidson diagonalization with overlap
     ethr =  1.00E-02,  avg # of iterations =  6.4

     negative rho (up, down):  1.145E-08 0.000E+00

     total cpu time spent up to now is        2.5 secs

     total energy              =     -22.83221187 Ry
     estimated scf accuracy    <       0.20041019 Ry

     iteration #  2     ecut=    90.00 Ry     beta= 0.50
     Davidson diagonalization with overlap
     ethr =  2.51E-03,  avg # of iterations =  1.0

     total cpu time spent up to now is        3.1 secs

     total energy              =     -22.78343257 Ry
     estimated scf accuracy    <       0.09511452 Ry

     iteration #  3     ecut=    90.00 Ry     beta= 0.50
     Davidson diagonalization with overlap
     ethr =  1.19E-03,  avg # of iterations =  3.5

     total cpu time spent up to now is        3.8 secs

     total energy              =     -22.79327465 Ry
     estimated scf accuracy    <       0.00865334 Ry

     iteration #  4     ecut=    90.00 Ry     beta= 0.50
     Davidson diagonalization with overlap
     ethr =  1.08E-04,  avg # of iterations =  7.9

     total cpu time spent up to now is        5.1 secs

     total energy              =     -22.79209796 Ry
     estimated scf accuracy    <       0.00539156 Ry

     iteration #  5     ecut=    90.00 Ry     beta= 0.50
     Davidson diagonalization with overlap
     ethr =  6.74E-05,  avg # of iterations =  1.7

     negative rho (up, down):  3.601E-03 0.000E+00

     total cpu time spent up to now is        5.7 secs

     total energy              =     -22.79108006 Ry
     estimated scf accuracy    <       0.00299141 Ry

     iteration #  6     ecut=    90.00 Ry     beta= 0.50
     Davidson diagonalization with overlap
     ethr =  3.74E-05,  avg # of iterations =  5.5

     negative rho (up, down):  5.816E-03 0.000E+00

     total cpu time spent up to now is        6.7 secs

     total energy              =     -22.79160235 Ry
     estimated scf accuracy    <       0.00117394 Ry

     iteration #  7     ecut=    90.00 Ry     beta= 0.50
     Davidson diagonalization with overlap
     ethr =  1.47E-05,  avg # of iterations =  4.5

     negative rho (up, down):  9.710E-03 0.000E+00

     total cpu time spent up to now is        7.7 secs

     total energy              =     -22.79099612 Ry
     estimated scf accuracy    <       0.00250909 Ry

     iteration #  8     ecut=    90.00 Ry     beta= 0.50
     Davidson diagonalization with overlap
     ethr =  1.47E-05,  avg # of iterations =  5.9

     negative rho (up, down):  4.427E-03 0.000E+00

     total cpu time spent up to now is        8.8 secs

     total energy              =     -22.79085641 Ry
     estimated scf accuracy    <       0.00043611 Ry

     iteration #  9     ecut=    90.00 Ry     beta= 0.50
     Davidson diagonalization with overlap
     ethr =  5.45E-06,  avg # of iterations =  6.4

     negative rho (up, down):  1.849E-03 0.000E+00

     total cpu time spent up to now is       10.0 secs

     total energy              =     -22.79085814 Ry
     estimated scf accuracy    <       0.00007362 Ry

     iteration # 10     ecut=    90.00 Ry     beta= 0.50
     Davidson diagonalization with overlap
     ethr =  9.20E-07,  avg # of iterations =  4.8

     negative rho (up, down):  3.239E-04 0.000E+00

     total cpu time spent up to now is       11.3 secs

     total energy              =     -22.79086108 Ry
     estimated scf accuracy    <       0.00001013 Ry

     iteration # 11     ecut=    90.00 Ry     beta= 0.50
     Davidson diagonalization with overlap
     c_bands:  1 eigenvalues not converged
     ethr =  1.27E-07,  avg # of iterations =  8.2

     negative rho (up, down):  1.054E-04 0.000E+00

     total cpu time spent up to now is       12.8 secs

     total energy              =     -22.79086123 Ry
     estimated scf accuracy    <       0.00000037 Ry

     iteration # 12     ecut=    90.00 Ry     beta= 0.50
     Davidson diagonalization with overlap
     ethr =  4.63E-09,  avg # of iterations =  4.6

     negative rho (up, down):  7.147E-05 0.000E+00

     total cpu time spent up to now is       14.2 secs

     total energy              =     -22.79086151 Ry
     estimated scf accuracy    <       0.00000010 Ry

     iteration # 13     ecut=    90.00 Ry     beta= 0.50
     Davidson diagonalization with overlap
     ethr =  1.24E-09,  avg # of iterations =  2.2

     negative rho (up, down):  7.061E-05 0.000E+00

     total cpu time spent up to now is       15.4 secs

     total energy              =     -22.79086152 Ry
     estimated scf accuracy    <          3.1E-10 Ry

     iteration # 14     ecut=    90.00 Ry     beta= 0.50
     Davidson diagonalization with overlap
     ethr =  3.82E-12,  avg # of iterations =  3.1

     negative rho (up, down):  6.981E-05 0.000E+00

     total cpu time spent up to now is       16.1 secs

     End of self-consistent calculation

          k = 0.0000 0.0000 0.0000 ( 10069 PWs)   bands (ev):

   -21.8708  -9.9839  -5.4205  -5.4205   0.8985   1.6458   1.8496   2.8098

          k = 0.0000 0.0962 0.0000 ( 10121 PWs)   bands (ev):

   -21.7067  -9.7875  -6.0677  -5.7591   1.1220   1.8725   2.0785   3.0365

          k = 0.0000 0.1925 0.0000 ( 10132 PWs)   bands (ev):

   -21.2162  -9.2036  -7.6987  -6.5518   1.7924   2.5513   2.7652   3.7153

          k = 0.0000 0.2887 0.0000 ( 10194 PWs)   bands (ev):

   -20.4052  -9.7916  -8.2514  -7.4320   2.9075   3.6692   3.9095   4.7653

          k = 0.0000 0.3849 0.0000 ( 10216 PWs)   bands (ev):

   -19.2856 -11.9916  -8.1657  -6.9813   2.5734   4.4550   5.2780   5.4040

          k = 0.0000 0.4811 0.0000 ( 10228 PWs)   bands (ev):

   -17.8883 -14.0910  -8.6387  -5.5565   0.4357   5.1626   6.4721   7.2872

          k = 0.0000-0.5774 0.0000 ( 10232 PWs)   bands (ev):

   -16.6179 -15.6033  -8.8012  -4.7107  -0.6635   5.0868   8.7791   8.9301

          k = 0.0833 0.1443 0.0000 ( 10131 PWs)   bands (ev):

   -21.3794  -9.3972  -7.0966  -6.4364   1.5691   2.3254   2.5363   3.4894

          k = 0.0833 0.2406 0.0000 ( 10192 PWs)   bands (ev):

   -20.7287  -8.8006  -8.6280  -7.4341   2.4628   3.2281   3.4520   4.3917

          k = 0.0833 0.3368 0.0000 ( 10209 PWs)   bands (ev):

   -19.7632 -10.8697  -8.3200  -7.5104   3.5860   3.7986   4.6005   4.8250

          k = 0.0833 0.4330 0.0000 ( 10220 PWs)   bands (ev):

   -18.5019 -12.9906  -8.9546  -6.1288   1.3839   5.5476   6.0149   6.3807

          k = 0.0833 0.5292 0.0000 ( 10235 PWs)   bands (ev):

   -17.0194 -14.9335  -9.2829  -4.8176  -0.3870   5.8202   7.7722   8.5679

          k = 0.1667 0.2887 0.0000 ( 10239 PWs)   bands (ev):

   -19.9235 -10.1259  -8.7955  -7.6894   3.5782   4.0435   4.3512   4.5968

          k = 0.1667 0.3849 0.0000 ( 10251 PWs)   bands (ev):

   -18.8149 -11.8508  -9.8502  -6.4345   2.0936   5.1305   5.9049   6.1985

          k = 0.1667 0.4811 0.0000 ( 10259 PWs)   bands (ev):

   -17.4376 -13.7617 -10.4246  -5.0058   0.1791   7.0915   7.7256   7.8203

          k = 0.1667 0.5774 0.0000 ( 10243 PWs)   bands (ev):

   -16.1973 -15.2021 -10.6090  -4.1118  -0.8904   7.6192   9.2811   9.3402

          k = 0.2500 0.4330 0.0000 ( 10263 PWs)   bands (ev):

   -17.5857 -12.8815 -11.3348  -5.0899   0.4772   6.8830   7.5381   8.0277

          k = 0.2500 0.5292 0.0000 ( 10249 PWs)   bands (ev):

   -16.1612 -14.3045 -12.0409  -3.7023  -1.0449   8.5495   8.9793   9.8742

          k = 0.3333 0.5774 0.0000 ( 10245 PWs)   bands (ev):

   -14.9418 -14.9418 -12.9433  -2.3446  -2.3446   8.2912  10.5465  10.5465

     the Fermi energy is    -2.3446 ev

!    total energy              =     -22.79086153 Ry
     estimated scf accuracy    <          4.4E-11 Ry
     smearing contrib. (-TS)   =      -0.00015672 Ry
     internal energy E=F+TS    =     -22.79070481 Ry

     The total energy is F=E-TS. E is the sum of the following terms:
     one-electron contribution =    -224.93144339 Ry
     hartree contribution      =     113.65380901 Ry
     xc contribution           =      -7.02173513 Ry
     ewald contribution        =      95.50866470 Ry

     convergence has been achieved in  14 iterations

     Forces acting on atoms (cartesian axes, Ry/au):

     atom    1 type  1   force =     0.00000000    0.00000000    0.00000000
     atom    2 type  1   force =     0.00000000    0.00000000    0.00000000

     Total force =     0.000000     Total SCF correction =     0.000000


     Computing stress (Cartesian axis) and pressure

          total   stress  (Ry/bohr**3)                   (kbar)     P=        0.12
   0.00000118   0.00000000   0.00000000            0.17        0.00        0.00
   0.00000000   0.00000118   0.00000000            0.00        0.17        0.00
   0.00000000   0.00000000   0.00000007            0.00        0.00        0.01


     Writing output data file ./2Dgraphene.save/
 
     init_run     :      0.34s CPU      0.45s WALL (       1 calls)
     electrons    :     15.21s CPU     15.56s WALL (       1 calls)
     forces       :      0.05s CPU      0.05s WALL (       1 calls)
     stress       :      0.14s CPU      0.15s WALL (       1 calls)

     Called by init_run:
     wfcinit      :      0.20s CPU      0.23s WALL (       1 calls)
     potinit      :      0.06s CPU      0.10s WALL (       1 calls)
     hinit0       :      0.03s CPU      0.08s WALL (       1 calls)

     Called by electrons:
     c_bands      :     11.35s CPU     11.61s WALL (      14 calls)
     sum_band     :      0.93s CPU      0.96s WALL (      14 calls)
     v_of_rho     :      0.15s CPU      0.16s WALL (      15 calls)
     newd         :      0.08s CPU      0.08s WALL (      15 calls)
     mix_rho      :      2.71s CPU      2.75s WALL (      14 calls)

     Called by c_bands:
     init_us_2    :      0.12s CPU      0.12s WALL (     589 calls)
     cegterg      :     11.06s CPU     11.30s WALL (     266 calls)

     Called by *egterg:
     cdiaghg      :      4.07s CPU      4.15s WALL (    1516 calls)
     h_psi        :      4.74s CPU      4.89s WALL (    1535 calls)
     s_psi        :      0.05s CPU      0.06s WALL (    1535 calls)
     g_psi        :      0.03s CPU      0.03s WALL (    1250 calls)

     Called by h_psi:
     h_psi:calbec :      0.24s CPU      0.25s WALL (    1535 calls)
     vloc_psi     :      4.40s CPU      4.53s WALL (    1535 calls)
     add_vuspsi   :      0.07s CPU      0.07s WALL (    1535 calls)

     General routines
     calbec       :      0.33s CPU      0.34s WALL (    1896 calls)
     fft          :      0.14s CPU      0.19s WALL (     173 calls)
     ffts         :      1.57s CPU      1.59s WALL (    3019 calls)
     fftw         :      4.77s CPU      4.91s WALL (   15562 calls)
 
     Parallel routines
     fft_scatt_xy :      0.46s CPU      0.47s WALL (   18754 calls)
     fft_scatt_yz :      3.01s CPU      3.09s WALL (   18754 calls)
 
     PWSCF        :     15.92s CPU     16.47s WALL

 
   This run was terminated on:  11:50:49  18Feb2022            

=------------------------------------------------------------------------------=
   JOB DONE.
=------------------------------------------------------------------------------=
