
     Program PWSCF v.6.7MaX starts on 18Feb2022 at 11:50:49 

     This program is part of the open-source Quantum ESPRESSO suite
     for quantum simulation of materials; please cite
         "P. Giannozzi et al., J. Phys.:Condens. Matter 21 395502 (2009);
         "P. Giannozzi et al., J. Phys.:Condens. Matter 29 465901 (2017);
          URL http://www.quantum-espresso.org", 
     in publications or presentations arising from this work. More details at
     http://www.quantum-espresso.org/quote

     Parallel version (MPI), running on    20 processors

     MPI processes distributed on     1 nodes
     R & G space division:  proc/nbgrp/npool/nimage =      20
     Waiting for input...
     Reading input from standard input
Warning: card &IONS ignored
Warning: card    !(DEFAULT)  USE BFGS QUASI-NEWTON ALGORITHM ignored
Warning: card / ignored

     Current dimensions of program PWSCF are:
     Max number of different atomic species (ntypx) = 10
     Max number of k-points (npk) =  40000
     Max angular momentum in pseudopotentials (lmaxx) =  3

     Atomic positions and unit cell read from directory:
     ./2Dgraphene.save/
     Atomic positions from file used, from input discarded
 
     file C.pbe-rrkjus.UPF: wavefunction(s)  2S 2P renormalized
     Message from routine set_cutoff:
     ecutrho < 4*ecutwfc, are you sure?

     Subspace diagonalization in iterative solution of the eigenvalue problem:
     one sub-group per band group will be used
     scalapack distributed-memory algorithm (size of sub-group:  4*  4 procs)

 
     Parallelization info
     --------------------
     sticks:   dense  smooth     PW     G-vecs:    dense   smooth      PW
     Min          20      20      8                 2643     2643     660
     Max          23      23      9                 2654     2654     683
     Sum         409     409    163                52949    52949   13511
 


     bravais-lattice index     =            4
     lattice parameter (alat)  =       4.6531  a.u.
     unit-cell volume          =     708.6620 (a.u.)^3
     number of atoms/cell      =            2
     number of atomic types    =            1
     number of electrons       =         8.00
     number of Kohn-Sham states=           20
     kinetic-energy cutoff     =      90.0000  Ry
     charge density cutoff     =     270.0000  Ry
     Exchange-correlation=  SLA  PW   PBE  PBE
                           (   1   4   3   4   0   0   0)

     celldm(1)=   4.653073  celldm(2)=   0.000000  celldm(3)=   8.122487
     celldm(4)=   0.000000  celldm(5)=   0.000000  celldm(6)=   0.000000

     crystal axes: (cart. coord. in units of alat)
               a(1) = (   1.000000   0.000000   0.000000 )  
               a(2) = (  -0.500000   0.866025   0.000000 )  
               a(3) = (   0.000000   0.000000   8.122487 )  

     reciprocal axes: (cart. coord. in units 2 pi/alat)
               b(1) = (  1.000000  0.577350  0.000000 )  
               b(2) = (  0.000000  1.154701  0.000000 )  
               b(3) = (  0.000000  0.000000  0.123115 )  


     PseudoPot. # 1 for C  read from file:
     ../Pseudo/C.pbe-rrkjus.UPF
     MD5 check sum: 00fb224312de0c5b6853bd333518df6f
     Pseudo is Ultrasoft, Zval =  4.0
     Generated by new atomic code, or converted to UPF format
     Using radial grid of  627 points,  4 beta functions with: 
                l(1) =   0
                l(2) =   0
                l(3) =   1
                l(4) =   1
     Q(r) pseudized with 0 coefficients 


     atomic species   valence    mass     pseudopotential
        C              4.00    12.01070     C ( 1.00)

     24 Sym. Ops., with inversion, found


                                    s                        frac. trans.

      isym =  1     identity                                     

 cryst.   s( 1) = (     1          0          0      )
                  (     0          1          0      )
                  (     0          0          1      )

 cart.    s( 1) = (  1.0000000  0.0000000  0.0000000 )
                  (  0.0000000  1.0000000  0.0000000 )
                  (  0.0000000  0.0000000  1.0000000 )


      isym =  2     180 deg rotation - cart. axis [0,0,1]        

 cryst.   s( 2) = (    -1          0          0      )
                  (     0         -1          0      )
                  (     0          0          1      )

 cart.    s( 2) = ( -1.0000000  0.0000000  0.0000000 )
                  (  0.0000000 -1.0000000  0.0000000 )
                  (  0.0000000  0.0000000  1.0000000 )


      isym =  3     180 deg rotation - cart. axis [0,1,0]        

 cryst.   s( 3) = (    -1          0          0      )
                  (     1          1          0      )
                  (     0          0         -1      )

 cart.    s( 3) = ( -1.0000000  0.0000000  0.0000000 )
                  (  0.0000000  1.0000000  0.0000000 )
                  (  0.0000000  0.0000000 -1.0000000 )


      isym =  4     180 deg rotation - cart. axis [1,0,0]        

 cryst.   s( 4) = (     1          0          0      )
                  (    -1         -1          0      )
                  (     0          0         -1      )

 cart.    s( 4) = (  1.0000000  0.0000000  0.0000000 )
                  (  0.0000000 -1.0000000  0.0000000 )
                  (  0.0000000  0.0000000 -1.0000000 )


      isym =  5      60 deg rotation - cryst. axis [0,0,1]       

 cryst.   s( 5) = (     1          1          0      )
                  (    -1          0          0      )
                  (     0          0          1      )

 cart.    s( 5) = (  0.5000000 -0.8660254  0.0000000 )
                  (  0.8660254  0.5000000  0.0000000 )
                  (  0.0000000  0.0000000  1.0000000 )


      isym =  6      60 deg rotation - cryst. axis [0,0,-1]      

 cryst.   s( 6) = (     0         -1          0      )
                  (     1          1          0      )
                  (     0          0          1      )

 cart.    s( 6) = (  0.5000000  0.8660254  0.0000000 )
                  ( -0.8660254  0.5000000  0.0000000 )
                  (  0.0000000  0.0000000  1.0000000 )


      isym =  7     120 deg rotation - cryst. axis [0,0,1]       

 cryst.   s( 7) = (     0          1          0      )
                  (    -1         -1          0      )
                  (     0          0          1      )

 cart.    s( 7) = ( -0.5000000 -0.8660254  0.0000000 )
                  (  0.8660254 -0.5000000  0.0000000 )
                  (  0.0000000  0.0000000  1.0000000 )


      isym =  8     120 deg rotation - cryst. axis [0,0,-1]      

 cryst.   s( 8) = (    -1         -1          0      )
                  (     1          0          0      )
                  (     0          0          1      )

 cart.    s( 8) = ( -0.5000000  0.8660254  0.0000000 )
                  ( -0.8660254 -0.5000000  0.0000000 )
                  (  0.0000000  0.0000000  1.0000000 )


      isym =  9     180 deg rotation - cryst. axis [1,-1,0]      

 cryst.   s( 9) = (     0         -1          0      )
                  (    -1          0          0      )
                  (     0          0         -1      )

 cart.    s( 9) = (  0.5000000 -0.8660254  0.0000000 )
                  ( -0.8660254 -0.5000000  0.0000000 )
                  (  0.0000000  0.0000000 -1.0000000 )


      isym = 10     180 deg rotation - cryst. axis [2,1,0]       

 cryst.   s(10) = (     1          1          0      )
                  (     0         -1          0      )
                  (     0          0         -1      )

 cart.    s(10) = (  0.5000000  0.8660254  0.0000000 )
                  (  0.8660254 -0.5000000  0.0000000 )
                  (  0.0000000  0.0000000 -1.0000000 )


      isym = 11     180 deg rotation - cryst. axis [0,1,0]       

 cryst.   s(11) = (    -1         -1          0      )
                  (     0          1          0      )
                  (     0          0         -1      )

 cart.    s(11) = ( -0.5000000 -0.8660254  0.0000000 )
                  ( -0.8660254  0.5000000  0.0000000 )
                  (  0.0000000  0.0000000 -1.0000000 )


      isym = 12     180 deg rotation - cryst. axis [1,1,0]       

 cryst.   s(12) = (     0          1          0      )
                  (     1          0          0      )
                  (     0          0         -1      )

 cart.    s(12) = ( -0.5000000  0.8660254  0.0000000 )
                  (  0.8660254  0.5000000  0.0000000 )
                  (  0.0000000  0.0000000 -1.0000000 )


      isym = 13     inversion                                    

 cryst.   s(13) = (    -1          0          0      )
                  (     0         -1          0      )
                  (     0          0         -1      )

 cart.    s(13) = ( -1.0000000  0.0000000  0.0000000 )
                  (  0.0000000 -1.0000000  0.0000000 )
                  (  0.0000000  0.0000000 -1.0000000 )


      isym = 14     inv. 180 deg rotation - cart. axis [0,0,1]   

 cryst.   s(14) = (     1          0          0      )
                  (     0          1          0      )
                  (     0          0         -1      )

 cart.    s(14) = (  1.0000000  0.0000000  0.0000000 )
                  (  0.0000000  1.0000000  0.0000000 )
                  (  0.0000000  0.0000000 -1.0000000 )


      isym = 15     inv. 180 deg rotation - cart. axis [0,1,0]   

 cryst.   s(15) = (     1          0          0      )
                  (    -1         -1          0      )
                  (     0          0          1      )

 cart.    s(15) = (  1.0000000  0.0000000  0.0000000 )
                  (  0.0000000 -1.0000000  0.0000000 )
                  (  0.0000000  0.0000000  1.0000000 )


      isym = 16     inv. 180 deg rotation - cart. axis [1,0,0]   

 cryst.   s(16) = (    -1          0          0      )
                  (     1          1          0      )
                  (     0          0          1      )

 cart.    s(16) = ( -1.0000000  0.0000000  0.0000000 )
                  (  0.0000000  1.0000000  0.0000000 )
                  (  0.0000000  0.0000000  1.0000000 )


      isym = 17     inv.  60 deg rotation - cryst. axis [0,0,1]  

 cryst.   s(17) = (    -1         -1          0      )
                  (     1          0          0      )
                  (     0          0         -1      )

 cart.    s(17) = ( -0.5000000  0.8660254  0.0000000 )
                  ( -0.8660254 -0.5000000  0.0000000 )
                  (  0.0000000  0.0000000 -1.0000000 )


      isym = 18     inv.  60 deg rotation - cryst. axis [0,0,-1] 

 cryst.   s(18) = (     0          1          0      )
                  (    -1         -1          0      )
                  (     0          0         -1      )

 cart.    s(18) = ( -0.5000000 -0.8660254  0.0000000 )
                  (  0.8660254 -0.5000000  0.0000000 )
                  (  0.0000000  0.0000000 -1.0000000 )


      isym = 19     inv. 120 deg rotation - cryst. axis [0,0,1]  

 cryst.   s(19) = (     0         -1          0      )
                  (     1          1          0      )
                  (     0          0         -1      )

 cart.    s(19) = (  0.5000000  0.8660254  0.0000000 )
                  ( -0.8660254  0.5000000  0.0000000 )
                  (  0.0000000  0.0000000 -1.0000000 )


      isym = 20     inv. 120 deg rotation - cryst. axis [0,0,-1] 

 cryst.   s(20) = (     1          1          0      )
                  (    -1          0          0      )
                  (     0          0         -1      )

 cart.    s(20) = (  0.5000000 -0.8660254  0.0000000 )
                  (  0.8660254  0.5000000  0.0000000 )
                  (  0.0000000  0.0000000 -1.0000000 )


      isym = 21     inv. 180 deg rotation - cryst. axis [1,-1,0] 

 cryst.   s(21) = (     0          1          0      )
                  (     1          0          0      )
                  (     0          0          1      )

 cart.    s(21) = ( -0.5000000  0.8660254  0.0000000 )
                  (  0.8660254  0.5000000  0.0000000 )
                  (  0.0000000  0.0000000  1.0000000 )


      isym = 22     inv. 180 deg rotation - cryst. axis [2,1,0]  

 cryst.   s(22) = (    -1         -1          0      )
                  (     0          1          0      )
                  (     0          0          1      )

 cart.    s(22) = ( -0.5000000 -0.8660254  0.0000000 )
                  ( -0.8660254  0.5000000  0.0000000 )
                  (  0.0000000  0.0000000  1.0000000 )


      isym = 23     inv. 180 deg rotation - cryst. axis [0,1,0]  

 cryst.   s(23) = (     1          1          0      )
                  (     0         -1          0      )
                  (     0          0          1      )

 cart.    s(23) = (  0.5000000  0.8660254  0.0000000 )
                  (  0.8660254 -0.5000000  0.0000000 )
                  (  0.0000000  0.0000000  1.0000000 )


      isym = 24     inv. 180 deg rotation - cryst. axis [1,1,0]  

 cryst.   s(24) = (     0         -1          0      )
                  (    -1          0          0      )
                  (     0          0          1      )

 cart.    s(24) = (  0.5000000 -0.8660254  0.0000000 )
                  ( -0.8660254 -0.5000000  0.0000000 )
                  (  0.0000000  0.0000000  1.0000000 )


     point group D_6h(6/mmm)
     there are 12 classes
     the character table:

       E     2C6   2C3   C2    3C2'  3C2'' i     2S3   2S6   s_h   3s_d  3s_v 
A_1g   1.00  1.00  1.00  1.00  1.00  1.00  1.00  1.00  1.00  1.00  1.00  1.00
A_2g   1.00  1.00  1.00  1.00 -1.00 -1.00  1.00  1.00  1.00  1.00 -1.00 -1.00
B_1g   1.00 -1.00  1.00 -1.00  1.00 -1.00  1.00 -1.00  1.00 -1.00  1.00 -1.00
B_2g   1.00 -1.00  1.00 -1.00 -1.00  1.00  1.00 -1.00  1.00 -1.00 -1.00  1.00
E_1g   2.00  1.00 -1.00 -2.00  0.00  0.00  2.00  1.00 -1.00 -2.00  0.00  0.00
E_2g   2.00 -1.00 -1.00  2.00  0.00  0.00  2.00 -1.00 -1.00  2.00  0.00  0.00
A_1u   1.00  1.00  1.00  1.00  1.00  1.00 -1.00 -1.00 -1.00 -1.00 -1.00 -1.00
A_2u   1.00  1.00  1.00  1.00 -1.00 -1.00 -1.00 -1.00 -1.00 -1.00  1.00  1.00
B_1u   1.00 -1.00  1.00 -1.00  1.00 -1.00 -1.00  1.00 -1.00  1.00 -1.00  1.00
B_2u   1.00 -1.00  1.00 -1.00 -1.00  1.00 -1.00  1.00 -1.00  1.00  1.00 -1.00
E_1u   2.00  1.00 -1.00 -2.00  0.00  0.00 -2.00 -1.00  1.00  2.00  0.00  0.00
E_2u   2.00 -1.00 -1.00  2.00  0.00  0.00 -2.00  1.00  1.00 -2.00  0.00  0.00

     the symmetry operations in each class and the name of the first element:

     E        1
          identity                                               
     2C6      5    6
           60 deg rotation - cryst. axis [0,0,1]                 
     2C3      7    8
          120 deg rotation - cryst. axis [0,0,1]                 
     C2       2
          180 deg rotation - cart. axis [0,0,1]                  
     3C2'     4   12   11
          180 deg rotation - cart. axis [1,0,0]                  
     3C2''    3    9   10
          180 deg rotation - cart. axis [0,1,0]                  
     i       13
          inversion                                              
     2S3     17   18
          inv.  60 deg rotation - cryst. axis [0,0,1]            
     2S6     19   20
          inv. 120 deg rotation - cryst. axis [0,0,1]            
     s_h     14
          inv. 180 deg rotation - cart. axis [0,0,1]             
     3s_d    16   24   23
          inv. 180 deg rotation - cart. axis [1,0,0]             
     3s_v    15   21   22
          inv. 180 deg rotation - cart. axis [0,1,0]             

   Cartesian axes

     site n.     atom                  positions (alat units)
         1           C   tau(   1) = (   0.0000000   0.5773503   4.0612436  )
         2           C   tau(   2) = (   0.5000000   0.2886751   4.0612436  )

   Crystallographic axes

     site n.     atom                  positions (cryst. coord.)
         1           C   tau(   1) = (  0.3333333  0.6666667  0.5000000  )
         2           C   tau(   2) = (  0.6666667  0.3333333  0.5000000  )

     number of k points=   101  Methfessel-Paxton smearing, width (Ry)=  0.0200
                       cart. coord. in units 2pi/alat
        k(    1) = (   0.0000000   0.0000000   0.0000000), wk =   0.0198020
        k(    2) = (   0.0166667   0.0000000   0.0000000), wk =   0.0198020
        k(    3) = (   0.0333333   0.0000000   0.0000000), wk =   0.0198020
        k(    4) = (   0.0500000   0.0000000   0.0000000), wk =   0.0198020
        k(    5) = (   0.0666667   0.0000000   0.0000000), wk =   0.0198020
        k(    6) = (   0.0833333   0.0000000   0.0000000), wk =   0.0198020
        k(    7) = (   0.1000000   0.0000000   0.0000000), wk =   0.0198020
        k(    8) = (   0.1166667   0.0000000   0.0000000), wk =   0.0198020
        k(    9) = (   0.1333333   0.0000000   0.0000000), wk =   0.0198020
        k(   10) = (   0.1500000   0.0000000   0.0000000), wk =   0.0198020
        k(   11) = (   0.1666667   0.0000000   0.0000000), wk =   0.0198020
        k(   12) = (   0.1833333   0.0000000   0.0000000), wk =   0.0198020
        k(   13) = (   0.2000000   0.0000000   0.0000000), wk =   0.0198020
        k(   14) = (   0.2166667   0.0000000   0.0000000), wk =   0.0198020
        k(   15) = (   0.2333333   0.0000000   0.0000000), wk =   0.0198020
        k(   16) = (   0.2500000   0.0000000   0.0000000), wk =   0.0198020
        k(   17) = (   0.2666667   0.0000000   0.0000000), wk =   0.0198020
        k(   18) = (   0.2833333   0.0000000   0.0000000), wk =   0.0198020
        k(   19) = (   0.3000000   0.0000000   0.0000000), wk =   0.0198020
        k(   20) = (   0.3166667   0.0000000   0.0000000), wk =   0.0198020
        k(   21) = (   0.3333333   0.0000000   0.0000000), wk =   0.0198020
        k(   22) = (   0.3500000   0.0000000   0.0000000), wk =   0.0198020
        k(   23) = (   0.3666667   0.0000000   0.0000000), wk =   0.0198020
        k(   24) = (   0.3833333   0.0000000   0.0000000), wk =   0.0198020
        k(   25) = (   0.4000000   0.0000000   0.0000000), wk =   0.0198020
        k(   26) = (   0.4166667   0.0000000   0.0000000), wk =   0.0198020
        k(   27) = (   0.4333333   0.0000000   0.0000000), wk =   0.0198020
        k(   28) = (   0.4500000   0.0000000   0.0000000), wk =   0.0198020
        k(   29) = (   0.4666667   0.0000000   0.0000000), wk =   0.0198020
        k(   30) = (   0.4833333   0.0000000   0.0000000), wk =   0.0198020
        k(   31) = (   0.5000000   0.0000000   0.0000000), wk =   0.0198020
        k(   32) = (   0.5166667   0.0000000   0.0000000), wk =   0.0198020
        k(   33) = (   0.5333333   0.0000000   0.0000000), wk =   0.0198020
        k(   34) = (   0.5500000   0.0000000   0.0000000), wk =   0.0198020
        k(   35) = (   0.5666667   0.0000000   0.0000000), wk =   0.0198020
        k(   36) = (   0.5833333   0.0000000   0.0000000), wk =   0.0198020
        k(   37) = (   0.6000000   0.0000000   0.0000000), wk =   0.0198020
        k(   38) = (   0.6166667   0.0000000   0.0000000), wk =   0.0198020
        k(   39) = (   0.6333333   0.0000000   0.0000000), wk =   0.0198020
        k(   40) = (   0.6500000   0.0000000   0.0000000), wk =   0.0198020
        k(   41) = (   0.6666667   0.0000000   0.0000000), wk =   0.0198020
        k(   42) = (   0.6583333   0.0144338   0.0000000), wk =   0.0198020
        k(   43) = (   0.6500000   0.0288675   0.0000000), wk =   0.0198020
        k(   44) = (   0.6416667   0.0433013   0.0000000), wk =   0.0198020
        k(   45) = (   0.6333333   0.0577350   0.0000000), wk =   0.0198020
        k(   46) = (   0.6250000   0.0721688   0.0000000), wk =   0.0198020
        k(   47) = (   0.6166667   0.0866025   0.0000000), wk =   0.0198020
        k(   48) = (   0.6083333   0.1010363   0.0000000), wk =   0.0198020
        k(   49) = (   0.6000000   0.1154701   0.0000000), wk =   0.0198020
        k(   50) = (   0.5916667   0.1299038   0.0000000), wk =   0.0198020
        k(   51) = (   0.5833333   0.1443376   0.0000000), wk =   0.0198020
        k(   52) = (   0.5750000   0.1587713   0.0000000), wk =   0.0198020
        k(   53) = (   0.5666667   0.1732051   0.0000000), wk =   0.0198020
        k(   54) = (   0.5583333   0.1876388   0.0000000), wk =   0.0198020
        k(   55) = (   0.5500000   0.2020726   0.0000000), wk =   0.0198020
        k(   56) = (   0.5416667   0.2165064   0.0000000), wk =   0.0198020
        k(   57) = (   0.5333333   0.2309401   0.0000000), wk =   0.0198020
        k(   58) = (   0.5250000   0.2453739   0.0000000), wk =   0.0198020
        k(   59) = (   0.5166667   0.2598076   0.0000000), wk =   0.0198020
        k(   60) = (   0.5083333   0.2742414   0.0000000), wk =   0.0198020
        k(   61) = (   0.5000000   0.2886751   0.0000000), wk =   0.0198020
        k(   62) = (   0.4875000   0.2814583   0.0000000), wk =   0.0198020
        k(   63) = (   0.4750000   0.2742414   0.0000000), wk =   0.0198020
        k(   64) = (   0.4625000   0.2670245   0.0000000), wk =   0.0198020
        k(   65) = (   0.4500000   0.2598076   0.0000000), wk =   0.0198020
        k(   66) = (   0.4375000   0.2525907   0.0000000), wk =   0.0198020
        k(   67) = (   0.4250000   0.2453739   0.0000000), wk =   0.0198020
        k(   68) = (   0.4125000   0.2381570   0.0000000), wk =   0.0198020
        k(   69) = (   0.4000000   0.2309401   0.0000000), wk =   0.0198020
        k(   70) = (   0.3875000   0.2237232   0.0000000), wk =   0.0198020
        k(   71) = (   0.3750000   0.2165064   0.0000000), wk =   0.0198020
        k(   72) = (   0.3625000   0.2092895   0.0000000), wk =   0.0198020
        k(   73) = (   0.3500000   0.2020726   0.0000000), wk =   0.0198020
        k(   74) = (   0.3375000   0.1948557   0.0000000), wk =   0.0198020
        k(   75) = (   0.3250000   0.1876388   0.0000000), wk =   0.0198020
        k(   76) = (   0.3125000   0.1804220   0.0000000), wk =   0.0198020
        k(   77) = (   0.3000000   0.1732051   0.0000000), wk =   0.0198020
        k(   78) = (   0.2875000   0.1659882   0.0000000), wk =   0.0198020
        k(   79) = (   0.2750000   0.1587713   0.0000000), wk =   0.0198020
        k(   80) = (   0.2625000   0.1515544   0.0000000), wk =   0.0198020
        k(   81) = (   0.2500000   0.1443376   0.0000000), wk =   0.0198020
        k(   82) = (   0.2375000   0.1371207   0.0000000), wk =   0.0198020
        k(   83) = (   0.2250000   0.1299038   0.0000000), wk =   0.0198020
        k(   84) = (   0.2125000   0.1226869   0.0000000), wk =   0.0198020
        k(   85) = (   0.2000000   0.1154701   0.0000000), wk =   0.0198020
        k(   86) = (   0.1875000   0.1082532   0.0000000), wk =   0.0198020
        k(   87) = (   0.1750000   0.1010363   0.0000000), wk =   0.0198020
        k(   88) = (   0.1625000   0.0938194   0.0000000), wk =   0.0198020
        k(   89) = (   0.1500000   0.0866025   0.0000000), wk =   0.0198020
        k(   90) = (   0.1375000   0.0793857   0.0000000), wk =   0.0198020
        k(   91) = (   0.1250000   0.0721688   0.0000000), wk =   0.0198020
        k(   92) = (   0.1125000   0.0649519   0.0000000), wk =   0.0198020
        k(   93) = (   0.1000000   0.0577350   0.0000000), wk =   0.0198020
        k(   94) = (   0.0875000   0.0505181   0.0000000), wk =   0.0198020
        k(   95) = (   0.0750000   0.0433013   0.0000000), wk =   0.0198020
        k(   96) = (   0.0625000   0.0360844   0.0000000), wk =   0.0198020
        k(   97) = (   0.0500000   0.0288675   0.0000000), wk =   0.0198020
        k(   98) = (   0.0375000   0.0216506   0.0000000), wk =   0.0198020
        k(   99) = (   0.0250000   0.0144338   0.0000000), wk =   0.0198020
        k(  100) = (   0.0125000   0.0072169   0.0000000), wk =   0.0198020
        k(  101) = (   0.0000000   0.0000000   0.0000000), wk =   0.0198020

                       cryst. coord.
        k(    1) = (   0.0000000   0.0000000   0.0000000), wk =   0.0198020
        k(    2) = (   0.0166667  -0.0083333   0.0000000), wk =   0.0198020
        k(    3) = (   0.0333333  -0.0166667   0.0000000), wk =   0.0198020
        k(    4) = (   0.0500000  -0.0250000   0.0000000), wk =   0.0198020
        k(    5) = (   0.0666667  -0.0333333   0.0000000), wk =   0.0198020
        k(    6) = (   0.0833333  -0.0416667   0.0000000), wk =   0.0198020
        k(    7) = (   0.1000000  -0.0500000   0.0000000), wk =   0.0198020
        k(    8) = (   0.1166667  -0.0583333   0.0000000), wk =   0.0198020
        k(    9) = (   0.1333333  -0.0666667   0.0000000), wk =   0.0198020
        k(   10) = (   0.1500000  -0.0750000   0.0000000), wk =   0.0198020
        k(   11) = (   0.1666667  -0.0833333   0.0000000), wk =   0.0198020
        k(   12) = (   0.1833333  -0.0916667   0.0000000), wk =   0.0198020
        k(   13) = (   0.2000000  -0.1000000   0.0000000), wk =   0.0198020
        k(   14) = (   0.2166667  -0.1083333   0.0000000), wk =   0.0198020
        k(   15) = (   0.2333333  -0.1166667   0.0000000), wk =   0.0198020
        k(   16) = (   0.2500000  -0.1250000   0.0000000), wk =   0.0198020
        k(   17) = (   0.2666667  -0.1333333   0.0000000), wk =   0.0198020
        k(   18) = (   0.2833333  -0.1416667   0.0000000), wk =   0.0198020
        k(   19) = (   0.3000000  -0.1500000   0.0000000), wk =   0.0198020
        k(   20) = (   0.3166667  -0.1583333   0.0000000), wk =   0.0198020
        k(   21) = (   0.3333333  -0.1666667   0.0000000), wk =   0.0198020
        k(   22) = (   0.3500000  -0.1750000   0.0000000), wk =   0.0198020
        k(   23) = (   0.3666667  -0.1833333   0.0000000), wk =   0.0198020
        k(   24) = (   0.3833333  -0.1916667   0.0000000), wk =   0.0198020
        k(   25) = (   0.4000000  -0.2000000   0.0000000), wk =   0.0198020
        k(   26) = (   0.4166667  -0.2083333   0.0000000), wk =   0.0198020
        k(   27) = (   0.4333333  -0.2166667   0.0000000), wk =   0.0198020
        k(   28) = (   0.4500000  -0.2250000   0.0000000), wk =   0.0198020
        k(   29) = (   0.4666667  -0.2333333   0.0000000), wk =   0.0198020
        k(   30) = (   0.4833333  -0.2416667   0.0000000), wk =   0.0198020
        k(   31) = (   0.5000000  -0.2500000   0.0000000), wk =   0.0198020
        k(   32) = (   0.5166667  -0.2583333   0.0000000), wk =   0.0198020
        k(   33) = (   0.5333333  -0.2666667   0.0000000), wk =   0.0198020
        k(   34) = (   0.5500000  -0.2750000   0.0000000), wk =   0.0198020
        k(   35) = (   0.5666667  -0.2833333   0.0000000), wk =   0.0198020
        k(   36) = (   0.5833333  -0.2916667   0.0000000), wk =   0.0198020
        k(   37) = (   0.6000000  -0.3000000   0.0000000), wk =   0.0198020
        k(   38) = (   0.6166667  -0.3083333   0.0000000), wk =   0.0198020
        k(   39) = (   0.6333333  -0.3166667   0.0000000), wk =   0.0198020
        k(   40) = (   0.6500000  -0.3250000   0.0000000), wk =   0.0198020
        k(   41) = (   0.6666667  -0.3333333   0.0000000), wk =   0.0198020
        k(   42) = (   0.6583333  -0.3166667   0.0000000), wk =   0.0198020
        k(   43) = (   0.6500000  -0.3000000   0.0000000), wk =   0.0198020
        k(   44) = (   0.6416667  -0.2833333   0.0000000), wk =   0.0198020
        k(   45) = (   0.6333333  -0.2666667   0.0000000), wk =   0.0198020
        k(   46) = (   0.6250000  -0.2500000   0.0000000), wk =   0.0198020
        k(   47) = (   0.6166667  -0.2333333   0.0000000), wk =   0.0198020
        k(   48) = (   0.6083333  -0.2166667   0.0000000), wk =   0.0198020
        k(   49) = (   0.6000000  -0.2000000   0.0000000), wk =   0.0198020
        k(   50) = (   0.5916667  -0.1833333   0.0000000), wk =   0.0198020
        k(   51) = (   0.5833333  -0.1666667   0.0000000), wk =   0.0198020
        k(   52) = (   0.5750000  -0.1500000   0.0000000), wk =   0.0198020
        k(   53) = (   0.5666667  -0.1333333   0.0000000), wk =   0.0198020
        k(   54) = (   0.5583333  -0.1166667   0.0000000), wk =   0.0198020
        k(   55) = (   0.5500000  -0.1000000   0.0000000), wk =   0.0198020
        k(   56) = (   0.5416667  -0.0833333   0.0000000), wk =   0.0198020
        k(   57) = (   0.5333333  -0.0666667   0.0000000), wk =   0.0198020
        k(   58) = (   0.5250000  -0.0500000   0.0000000), wk =   0.0198020
        k(   59) = (   0.5166667  -0.0333333   0.0000000), wk =   0.0198020
        k(   60) = (   0.5083333  -0.0166667   0.0000000), wk =   0.0198020
        k(   61) = (   0.5000000   0.0000000   0.0000000), wk =   0.0198020
        k(   62) = (   0.4875000   0.0000000   0.0000000), wk =   0.0198020
        k(   63) = (   0.4750000   0.0000000   0.0000000), wk =   0.0198020
        k(   64) = (   0.4625000   0.0000000   0.0000000), wk =   0.0198020
        k(   65) = (   0.4500000   0.0000000   0.0000000), wk =   0.0198020
        k(   66) = (   0.4375000   0.0000000   0.0000000), wk =   0.0198020
        k(   67) = (   0.4250000   0.0000000   0.0000000), wk =   0.0198020
        k(   68) = (   0.4125000   0.0000000   0.0000000), wk =   0.0198020
        k(   69) = (   0.4000000   0.0000000   0.0000000), wk =   0.0198020
        k(   70) = (   0.3875000   0.0000000   0.0000000), wk =   0.0198020
        k(   71) = (   0.3750000   0.0000000   0.0000000), wk =   0.0198020
        k(   72) = (   0.3625000   0.0000000   0.0000000), wk =   0.0198020
        k(   73) = (   0.3500000   0.0000000   0.0000000), wk =   0.0198020
        k(   74) = (   0.3375000   0.0000000   0.0000000), wk =   0.0198020
        k(   75) = (   0.3250000   0.0000000   0.0000000), wk =   0.0198020
        k(   76) = (   0.3125000   0.0000000   0.0000000), wk =   0.0198020
        k(   77) = (   0.3000000   0.0000000   0.0000000), wk =   0.0198020
        k(   78) = (   0.2875000   0.0000000   0.0000000), wk =   0.0198020
        k(   79) = (   0.2750000   0.0000000   0.0000000), wk =   0.0198020
        k(   80) = (   0.2625000   0.0000000   0.0000000), wk =   0.0198020
        k(   81) = (   0.2500000   0.0000000   0.0000000), wk =   0.0198020
        k(   82) = (   0.2375000   0.0000000   0.0000000), wk =   0.0198020
        k(   83) = (   0.2250000   0.0000000   0.0000000), wk =   0.0198020
        k(   84) = (   0.2125000   0.0000000   0.0000000), wk =   0.0198020
        k(   85) = (   0.2000000   0.0000000   0.0000000), wk =   0.0198020
        k(   86) = (   0.1875000   0.0000000   0.0000000), wk =   0.0198020
        k(   87) = (   0.1750000   0.0000000   0.0000000), wk =   0.0198020
        k(   88) = (   0.1625000   0.0000000   0.0000000), wk =   0.0198020
        k(   89) = (   0.1500000   0.0000000   0.0000000), wk =   0.0198020
        k(   90) = (   0.1375000   0.0000000   0.0000000), wk =   0.0198020
        k(   91) = (   0.1250000   0.0000000   0.0000000), wk =   0.0198020
        k(   92) = (   0.1125000   0.0000000   0.0000000), wk =   0.0198020
        k(   93) = (   0.1000000   0.0000000   0.0000000), wk =   0.0198020
        k(   94) = (   0.0875000   0.0000000   0.0000000), wk =   0.0198020
        k(   95) = (   0.0750000   0.0000000   0.0000000), wk =   0.0198020
        k(   96) = (   0.0625000   0.0000000   0.0000000), wk =   0.0198020
        k(   97) = (   0.0500000   0.0000000   0.0000000), wk =   0.0198020
        k(   98) = (   0.0375000   0.0000000   0.0000000), wk =   0.0198020
        k(   99) = (   0.0250000   0.0000000   0.0000000), wk =   0.0198020
        k(  100) = (   0.0125000   0.0000000   0.0000000), wk =   0.0198020
        k(  101) = (   0.0000000   0.0000000   0.0000000), wk =   0.0198020

     Dense  grid:    52949 G-vectors     FFT dimensions: (  25,  25, 200)

     Dynamical RAM for                 wfc:       0.16 MB

     Dynamical RAM for     wfc (w. buffer):      15.88 MB

     Dynamical RAM for           str. fact:       0.04 MB

     Dynamical RAM for           local pot:       0.00 MB

     Dynamical RAM for          nlocal pot:       0.12 MB

     Dynamical RAM for                qrad:       0.38 MB

     Dynamical RAM for          rho,v,vnew:       0.26 MB

     Dynamical RAM for           G-vectors:       0.17 MB

     Dynamical RAM for          h,s,v(r/c):       0.00 MB

     Dynamical RAM for          <psi|beta>:       0.00 MB

     Dynamical RAM for                 psi:       0.31 MB

     Dynamical RAM for                hpsi:       0.31 MB

     Dynamical RAM for                spsi:       0.31 MB

     Dynamical RAM for      wfcinit/wfcrot:       0.32 MB

     Dynamical RAM for           addusdens:       1.82 MB

     Estimated static dynamical RAM per process >      17.17 MB

     Estimated max dynamical RAM per process >      19.00 MB

     Estimated total dynamical RAM >     379.91 MB

     The potential is recalculated from file :
     ./2Dgraphene.save/charge-density


     negative rho (up, down):  6.981E-05 0.000E+00
     Starting wfcs are    8 randomized atomic wfcs +   12 random wfcs

     Band Structure Calculation
     Davidson diagonalization with overlap

     Computing kpt #:     1  of   101
     total cpu time spent up to now is        1.0 secs

     Computing kpt #:     2  of   101
     total cpu time spent up to now is        1.5 secs

     Computing kpt #:     3  of   101
     total cpu time spent up to now is        2.1 secs

     Computing kpt #:     4  of   101
     total cpu time spent up to now is        2.6 secs

     Computing kpt #:     5  of   101
     total cpu time spent up to now is        3.1 secs

     Computing kpt #:     6  of   101
     total cpu time spent up to now is        3.6 secs

     Computing kpt #:     7  of   101
     total cpu time spent up to now is        4.1 secs

     Computing kpt #:     8  of   101
     total cpu time spent up to now is        4.6 secs

     Computing kpt #:     9  of   101
     total cpu time spent up to now is        5.2 secs

     Computing kpt #:    10  of   101
     total cpu time spent up to now is        5.7 secs

     Computing kpt #:    11  of   101
     total cpu time spent up to now is        6.3 secs

     Computing kpt #:    12  of   101
     total cpu time spent up to now is        6.8 secs

     Computing kpt #:    13  of   101
     total cpu time spent up to now is        7.3 secs

     Computing kpt #:    14  of   101
     total cpu time spent up to now is        7.8 secs

     Computing kpt #:    15  of   101
     total cpu time spent up to now is        8.4 secs

     Computing kpt #:    16  of   101
     total cpu time spent up to now is        8.9 secs

     Computing kpt #:    17  of   101
     total cpu time spent up to now is        9.5 secs

     Computing kpt #:    18  of   101
     total cpu time spent up to now is       10.0 secs

     Computing kpt #:    19  of   101
     total cpu time spent up to now is       10.6 secs

     Computing kpt #:    20  of   101
     total cpu time spent up to now is       11.1 secs

     Computing kpt #:    21  of   101
     total cpu time spent up to now is       11.7 secs

     Computing kpt #:    22  of   101
     total cpu time spent up to now is       12.2 secs

     Computing kpt #:    23  of   101
     total cpu time spent up to now is       12.8 secs

     Computing kpt #:    24  of   101
     total cpu time spent up to now is       13.4 secs

     Computing kpt #:    25  of   101
     total cpu time spent up to now is       14.0 secs

     Computing kpt #:    26  of   101
     total cpu time spent up to now is       14.8 secs

     Computing kpt #:    27  of   101
     total cpu time spent up to now is       15.7 secs

     Computing kpt #:    28  of   101
     total cpu time spent up to now is       16.7 secs

     Computing kpt #:    29  of   101
     total cpu time spent up to now is       17.7 secs

     Computing kpt #:    30  of   101
     total cpu time spent up to now is       18.6 secs

     Computing kpt #:    31  of   101
     total cpu time spent up to now is       19.4 secs

     Computing kpt #:    32  of   101
     total cpu time spent up to now is       20.4 secs

     Computing kpt #:    33  of   101
     total cpu time spent up to now is       21.5 secs

     Computing kpt #:    34  of   101
     total cpu time spent up to now is       23.0 secs

     Computing kpt #:    35  of   101
     total cpu time spent up to now is       24.5 secs

     Computing kpt #:    36  of   101
     total cpu time spent up to now is       26.0 secs

     Computing kpt #:    37  of   101
     total cpu time spent up to now is       27.4 secs

     Computing kpt #:    38  of   101
     total cpu time spent up to now is       28.8 secs

     Computing kpt #:    39  of   101
     total cpu time spent up to now is       30.1 secs

     Computing kpt #:    40  of   101
     total cpu time spent up to now is       31.6 secs

     Computing kpt #:    41  of   101
     total cpu time spent up to now is       32.9 secs

     Computing kpt #:    42  of   101
     total cpu time spent up to now is       34.3 secs

     Computing kpt #:    43  of   101
     total cpu time spent up to now is       35.9 secs

     Computing kpt #:    44  of   101
     total cpu time spent up to now is       37.1 secs

     Computing kpt #:    45  of   101
     total cpu time spent up to now is       38.6 secs

     Computing kpt #:    46  of   101
     total cpu time spent up to now is       39.8 secs

     Computing kpt #:    47  of   101
     total cpu time spent up to now is       41.0 secs

     Computing kpt #:    48  of   101
     total cpu time spent up to now is       42.1 secs

     Computing kpt #:    49  of   101
     total cpu time spent up to now is       43.2 secs

     Computing kpt #:    50  of   101
     total cpu time spent up to now is       44.3 secs

     Computing kpt #:    51  of   101
     total cpu time spent up to now is       45.4 secs

     Computing kpt #:    52  of   101
     total cpu time spent up to now is       46.4 secs

     Computing kpt #:    53  of   101
     total cpu time spent up to now is       47.5 secs

     Computing kpt #:    54  of   101
     total cpu time spent up to now is       48.5 secs

     Computing kpt #:    55  of   101
     total cpu time spent up to now is       49.6 secs

     Computing kpt #:    56  of   101
     total cpu time spent up to now is       50.5 secs

     Computing kpt #:    57  of   101
     total cpu time spent up to now is       51.5 secs

     Computing kpt #:    58  of   101
     total cpu time spent up to now is       52.5 secs

     Computing kpt #:    59  of   101
     total cpu time spent up to now is       53.5 secs

     Computing kpt #:    60  of   101
     total cpu time spent up to now is       54.5 secs

     Computing kpt #:    61  of   101
     total cpu time spent up to now is       55.5 secs

     Computing kpt #:    62  of   101
     total cpu time spent up to now is       56.6 secs

     Computing kpt #:    63  of   101
     total cpu time spent up to now is       57.7 secs

     Computing kpt #:    64  of   101
     total cpu time spent up to now is       58.8 secs

     Computing kpt #:    65  of   101
     total cpu time spent up to now is       59.9 secs

     Computing kpt #:    66  of   101
     total cpu time spent up to now is       61.0 secs

     Computing kpt #:    67  of   101
     total cpu time spent up to now is       63.5 secs

     Computing kpt #:    68  of   101
     total cpu time spent up to now is       64.9 secs

     Computing kpt #:    69  of   101
     total cpu time spent up to now is       65.8 secs

     Computing kpt #:    70  of   101
     total cpu time spent up to now is       68.8 secs

     Computing kpt #:    71  of   101
     total cpu time spent up to now is       69.7 secs

     Computing kpt #:    72  of   101
     total cpu time spent up to now is       70.5 secs

     Computing kpt #:    73  of   101
     total cpu time spent up to now is       71.3 secs

     Computing kpt #:    74  of   101
     total cpu time spent up to now is       72.4 secs

     Computing kpt #:    75  of   101
     total cpu time spent up to now is       73.8 secs

     Computing kpt #:    76  of   101
     total cpu time spent up to now is       74.9 secs

     Computing kpt #:    77  of   101
     total cpu time spent up to now is       75.6 secs

     Computing kpt #:    78  of   101
     total cpu time spent up to now is       76.2 secs

     Computing kpt #:    79  of   101
     total cpu time spent up to now is       77.1 secs

     Computing kpt #:    80  of   101
     total cpu time spent up to now is       77.9 secs

     Computing kpt #:    81  of   101
     total cpu time spent up to now is       78.8 secs

     Computing kpt #:    82  of   101
     total cpu time spent up to now is       79.7 secs

     Computing kpt #:    83  of   101
     total cpu time spent up to now is       80.5 secs

     Computing kpt #:    84  of   101
     total cpu time spent up to now is       81.3 secs

     Computing kpt #:    85  of   101
     total cpu time spent up to now is       81.8 secs

     Computing kpt #:    86  of   101
     total cpu time spent up to now is       82.4 secs

     Computing kpt #:    87  of   101
     total cpu time spent up to now is       82.9 secs

     Computing kpt #:    88  of   101
     total cpu time spent up to now is       83.4 secs

     Computing kpt #:    89  of   101
     total cpu time spent up to now is       84.0 secs

     Computing kpt #:    90  of   101
     total cpu time spent up to now is       84.5 secs

     Computing kpt #:    91  of   101
     total cpu time spent up to now is       85.0 secs

     Computing kpt #:    92  of   101
     total cpu time spent up to now is       85.6 secs

     Computing kpt #:    93  of   101
     total cpu time spent up to now is       86.1 secs

     Computing kpt #:    94  of   101
     total cpu time spent up to now is       86.6 secs

     Computing kpt #:    95  of   101
     total cpu time spent up to now is       87.2 secs

     Computing kpt #:    96  of   101
     total cpu time spent up to now is       87.7 secs

     Computing kpt #:    97  of   101
     total cpu time spent up to now is       88.3 secs

     Computing kpt #:    98  of   101
     total cpu time spent up to now is       88.8 secs

     Computing kpt #:    99  of   101
     total cpu time spent up to now is       89.3 secs

     Computing kpt #:   100  of   101
     total cpu time spent up to now is       89.9 secs

     Computing kpt #:   101  of   101
     total cpu time spent up to now is       90.4 secs

     ethr =  1.25E-12,  avg # of iterations = 47.1

     total cpu time spent up to now is       90.4 secs

     End of band structure calculation

          k = 0.0000 0.0000 0.0000 ( 10069 PWs)   bands (ev):

   -21.8707  -9.9838  -5.4204  -5.4204   0.8987   1.6461   1.8496   2.8099
     3.2810   4.9540   5.6005   5.9535   5.9535   7.9294   8.7175   9.0990
    10.2827  11.6617  12.6717  16.1512

     occupation numbers 
     1.0000   1.0000   1.0000   1.0000   0.0000   0.0000   0.0000   0.0000
     0.0000   0.0000   0.0000   0.0000   0.0000   0.0000   0.0000   0.0000
     0.0000   0.0000   0.0000   0.0000

          k = 0.0167 0.0000 0.0000 ( 10073 PWs)   bands (ev):

   -21.8658  -9.9779  -5.4408  -5.4313   0.9054   1.6529   1.8565   2.8167
     3.2878   4.9607   5.6068   5.9574   5.9751   7.9360   8.7243   9.0816
    10.2911  11.6681  12.6785  16.1571

     occupation numbers 
     1.0000   1.0000   1.0000   1.0000   0.0000   0.0000   0.0000   0.0000
     0.0000   0.0000   0.0000   0.0000   0.0000   0.0000   0.0000   0.0000
     0.0000   0.0000   0.0000   0.0000

          k = 0.0333 0.0000 0.0000 ( 10091 PWs)   bands (ev):

   -21.8510  -9.9602  -5.5014  -5.4639   0.9255   1.6733   1.8771   2.8371
     3.3082   4.9810   5.6256   5.9689   6.0390   7.9559   8.7448   9.0296
    10.3164  11.6874  12.6988  16.1747

     occupation numbers 
     1.0000   1.0000   1.0000   1.0000   0.0000   0.0000   0.0000   0.0000
     0.0000   0.0000   0.0000   0.0000   0.0000   0.0000   0.0000   0.0000
     0.0000   0.0000   0.0000   0.0000

          k = 0.0500 0.0000 0.0000 ( 10119 PWs)   bands (ev):

   -21.8263  -9.9307  -5.6005  -5.5179   0.9590   1.7073   1.9114   2.8711
     3.3422   5.0147   5.6569   5.9886   6.1427   7.9891   8.7790   8.9436
    10.3593  11.7194  12.7325  16.2040

     occupation numbers 
     1.0000   1.0000   1.0000   1.0000   0.0000   0.0000   0.0000   0.0000
     0.0000   0.0000   0.0000   0.0000   0.0000   0.0000   0.0000   0.0000
     0.0000   0.0000   0.0000   0.0000

          k = 0.0667 0.0000 0.0000 ( 10133 PWs)   bands (ev):

   -21.7919  -9.8894  -5.7355  -5.5929   1.0060   1.7549   1.9595   2.9187
     3.3897   5.0619   5.7004   6.0167   6.2823   8.0355   8.8247   8.8268
    10.4209  11.7642  12.7798  16.2448

     occupation numbers 
     1.0000   1.0000   1.0000   1.0000   0.0000   0.0000   0.0000   0.0000
     0.0000   0.0000   0.0000   0.0000   0.0000   0.0000   0.0000   0.0000
     0.0000   0.0000   0.0000   0.0000

          k = 0.0833 0.0000 0.0000 ( 10125 PWs)   bands (ev):

   -21.7476  -9.8364  -5.9029  -5.6882   1.0663   1.8161   2.0213   2.9799
     3.4509   5.1226   5.7559   6.0540   6.4526   8.0950   8.6741   8.8881
    10.5028  11.8217  12.8404  16.2966

     occupation numbers 
     1.0000   1.0000   1.0000   1.0000   0.0000   0.0000   0.0000   0.0000
     0.0000   0.0000   0.0000   0.0000   0.0000   0.0000   0.0000   0.0000
     0.0000   0.0000   0.0000   0.0000

          k = 0.1000 0.0000 0.0000 ( 10133 PWs)   bands (ev):

   -21.6935  -9.7717  -6.0991  -5.8030   1.1401   1.8909   2.0968   3.0547
     3.5256   5.1967   5.8231   6.1014   6.6477   8.1678   8.4936   8.9630
    10.6070  11.8918  12.9145  16.3591

     occupation numbers 
     1.0000   1.0000   1.0000   1.0000   0.0000   0.0000   0.0000   0.0000
     0.0000   0.0000   0.0000   0.0000   0.0000   0.0000   0.0000   0.0000
     0.0000   0.0000   0.0000   0.0000

          k = 0.1167 0.0000 0.0000 ( 10121 PWs)   bands (ev):

   -21.6296  -9.6954  -6.3202  -5.9363   1.2273   1.9792   2.1861   3.1431
     3.6139   5.2842   5.9011   6.1600   6.8609   8.2537   8.2851   9.0513
    10.7359  11.9743  13.0019  16.4315

     occupation numbers 
     1.0000   1.0000   1.0000   1.0000   0.0000   0.0000   0.0000   0.0000
     0.0000   0.0000   0.0000   0.0000   0.0000   0.0000   0.0000   0.0000
     0.0000   0.0000   0.0000   0.0000

          k = 0.1333 0.0000 0.0000 ( 10129 PWs)   bands (ev):

   -21.5559  -9.6074  -6.5625  -6.0871   1.3279   2.0812   2.2891   3.2450
     3.7159   5.3852   5.9891   6.2312   7.0853   8.0507   8.3526   9.1531
    10.8921  12.0691  13.1025  16.5127

     occupation numbers 
     1.0000   1.0000   1.0000   1.0000   0.0000   0.0000   0.0000   0.0000
     0.0000   0.0000   0.0000   0.0000   0.0000   0.0000   0.0000   0.0000
     0.0000   0.0000   0.0000   0.0000

          k = 0.1500 0.0000 0.0000 ( 10133 PWs)   bands (ev):

   -21.4725  -9.5080  -6.8223  -6.2542   1.4419   2.1966   2.4059   3.3605
     3.8315   5.4996   6.0859   6.3167   7.3143   7.7927   8.4646   9.2683
    11.0782  12.1759  13.2164  16.6012

     occupation numbers 
     1.0000   1.0000   1.0000   1.0000   0.0000   0.0000   0.0000   0.0000
     0.0000   0.0000   0.0000   0.0000   0.0000   0.0000   0.0000   0.0000
     0.0000   0.0000   0.0000   0.0000

          k = 0.1667 0.0000 0.0000 ( 10131 PWs)   bands (ev):

   -21.3793  -9.3971  -7.0964  -6.4363   1.5694   2.3256   2.5364   3.4895
     3.9606   5.6273   6.1901   6.4182   7.5134   7.5416   8.5894   9.3967
    11.2965  12.2943  13.3435  16.6942

     occupation numbers 
     1.0000   1.0000   1.0000   1.0000   0.0000   0.0000   0.0000   0.0000
     0.0000   0.0000   0.0000   0.0000   0.0000   0.0000   0.0000   0.0000
     0.0000   0.0000   0.0000   0.0000

          k = 0.1833 0.0000 0.0000 ( 10141 PWs)   bands (ev):

   -21.2765  -9.2749  -7.3819  -6.6322   1.7102   2.4681   2.6806   3.6320
     4.1034   5.7683   6.3008   6.5370   7.2152   7.7622   8.7270   9.5385
    11.5484  12.4240  13.4836  16.7876

     occupation numbers 
     1.0000   1.0000   1.0000   1.0000   0.0000   0.0000   0.0000   0.0000
     0.0000   0.0000   0.0000   0.0000   0.0000   0.0000   0.0000   0.0000
     0.0000   0.0000   0.0000   0.0000

          k = 0.2000 0.0000 0.0000 ( 10165 PWs)   bands (ev):

   -21.1640  -9.1415  -7.6762  -6.8405   1.8645   2.6241   2.8386   3.7880
     4.2598   5.9225   6.4176   6.6736   6.9005   7.9722   8.8773   9.6935
    11.8342  12.5643  13.6368  16.8742

     occupation numbers 
     1.0000   1.0000   1.0000   1.0000   0.0000   0.0000   0.0000   0.0000
     0.0000   0.0000   0.0000   0.0000   0.0000   0.0000   0.0000   0.0000
     0.0000   0.0000   0.0000   0.0000

          k = 0.2167 0.0000 0.0000 ( 10175 PWs)   bands (ev):

   -21.0419  -8.9970  -7.9769  -7.0598   2.0321   2.7936   3.0103   3.9575
     4.4298   6.0899   6.5413   6.5716   6.8277   8.1694   9.0399   9.8617
    12.1528  12.7143  13.8030  16.9414

     occupation numbers 
     1.0000   1.0000   1.0000   1.0000   0.0000   0.0000   0.0000   0.0000
     0.0000   0.0000   0.0000   0.0000   0.0000   0.0000   0.0000   0.0000
     0.0000   0.0000   0.0000   0.0000

          k = 0.2333 0.0000 0.0000 ( 10179 PWs)   bands (ev):

   -20.9103  -8.8415  -8.2821  -7.2888   2.2131   2.9764   3.1957   4.1404
     4.6134   6.2308   6.2704   6.6725   6.9985   8.3529   9.2147  10.0431
    12.5017  12.8727  13.9821  16.9678

     occupation numbers 
     1.0000   1.0000   1.0000   1.0000   0.0000   0.0000   0.0000   0.0000
     0.0000   0.0000   0.0000   0.0000   0.0000   0.0000   0.0000   0.0000
     0.0000   0.0000   0.0000   0.0000

          k = 0.2500 0.0000 0.0000 ( 10179 PWs)   bands (ev):

   -20.7691  -8.6752  -8.5900  -7.5262   2.4075   3.1726   3.3949   4.3366
     4.8106   5.8801   6.4639   6.8123   7.1852   8.5232   9.4014  10.2377
    12.8775  13.0374  14.1740  16.9232

     occupation numbers 
     1.0000   1.0000   1.0000   1.0000   0.0000   0.0000   0.0000   0.0000
     0.0000   0.0000   0.0000   0.0000   0.0000   0.0000   0.0000   0.0000
     0.0000   0.0000   0.0000   0.0000

          k = 0.2667 0.0000 0.0000 ( 10201 PWs)   bands (ev):

   -20.6185  -8.8992  -8.4983  -7.7707   2.6152   3.3821   3.6078   4.5462
     5.0214   5.5216   6.6703   6.9612   7.3870   8.6814   9.5993  10.4453
    13.2054  13.2757  14.3786  16.7842

     occupation numbers 
     1.0000   1.0000   1.0000   1.0000   0.0000   0.0000   0.0000   0.0000
     0.0000   0.0000   0.0000   0.0000   0.0000   0.0000   0.0000   0.0000
     0.0000   0.0000   0.0000   0.0000

          k = 0.2833 0.0000 0.0000 ( 10215 PWs)   bands (ev):

   -20.4586  -9.2084  -8.3111  -8.0210   2.8362   3.6049   3.8345   4.7691
     5.1570   5.2458   6.8893   7.1195   7.6036   8.8290   9.8079  10.6660
    13.3714  13.6910  14.5958  16.5604

     occupation numbers 
     1.0000   1.0000   1.0000   1.0000   0.0000   0.0000   0.0000   0.0000
     0.0000   0.0000   0.0000   0.0000   0.0000   0.0000   0.0000   0.0000
     0.0000   0.0000   0.0000   0.0000

          k = 0.3000 0.0000 0.0000 ( 10223 PWs)   bands (ev):

   -20.2894  -9.5166  -8.2760  -8.1136   3.0704   3.8408   4.0749   4.7881
     5.0051   5.4837   7.1208   7.2874   7.8345   8.9678  10.0262  10.8996
    13.5269  14.1180  14.8255  16.2934

     occupation numbers 
     1.0000   1.0000   1.0000   1.0000   0.0000   0.0000   0.0000   0.0000
     0.0000   0.0000   0.0000   0.0000   0.0000   0.0000   0.0000   0.0000
     0.0000   0.0000   0.0000   0.0000

          k = 0.3167 0.0000 0.0000 ( 10229 PWs)   bands (ev):

   -20.1109  -9.8226  -8.5345  -7.9063   3.3178   4.0897   4.3290   4.4165
     5.2541   5.7351   7.3644   7.4650   8.0794   9.0992  10.2527  11.1462
    13.6572  14.5503  15.0674  16.0319

     occupation numbers 
     1.0000   1.0000   1.0000   1.0000   0.0000   0.0000   0.0000   0.0000
     0.0000   0.0000   0.0000   0.0000   0.0000   0.0000   0.0000   0.0000
     0.0000   0.0000   0.0000   0.0000

          k = 0.3333 0.0000 0.0000 ( 10239 PWs)   bands (ev):

   -19.9234 -10.1258  -8.7954  -7.6893   3.5784   4.0436   4.3514   4.5968
     5.5161   6.0000   7.6197   7.6520   8.3383   9.2248  10.4854  11.4056
    13.7399  14.9802  15.3212  15.8227

     occupation numbers 
     1.0000   1.0000   1.0000   1.0000   0.0000   0.0000   0.0000   0.0000
     0.0000   0.0000   0.0000   0.0000   0.0000   0.0000   0.0000   0.0000
     0.0000   0.0000   0.0000   0.0000

          k = 0.3500 0.0000 0.0000 ( 10221 PWs)   bands (ev):

   -19.7269 -10.4254  -9.0577  -7.4631   3.6707   3.8521   4.6259   4.8784
     5.7908   6.2784   7.8482   7.8861   8.6108   9.3457  10.7206  11.6778
    13.7500  15.3980  15.5865  15.7075

     occupation numbers 
     1.0000   1.0000   1.0000   1.0000   0.0000   0.0000   0.0000   0.0000
     0.0000   0.0000   0.0000   0.0000   0.0000   0.0000   0.0000   0.0000
     0.0000   0.0000   0.0000   0.0000

          k = 0.3667 0.0000 0.0000 ( 10227 PWs)   bands (ev):

   -19.5216 -10.7208  -9.3204  -7.2279   3.2990   4.1388   4.9127   5.1736
     6.0780   6.5701   8.0532   8.1628   8.8969   9.4628  10.9525  11.9625
    13.6801  15.7078  15.7896  15.8628

     occupation numbers 
     1.0000   1.0000   1.0000   1.0000   0.0000   0.0000   0.0000   0.0000
     0.0000   0.0000   0.0000   0.0000   0.0000   0.0000   0.0000   0.0000
     0.0000   0.0000   0.0000   0.0000

          k = 0.3833 0.0000 0.0000 ( 10233 PWs)   bands (ev):

   -19.3075 -11.0115  -9.5826  -6.9843   2.9295   4.4385   5.2116   5.4826
     6.3774   6.8752   8.2665   8.4483   9.1964   9.5769  11.1715  12.2595
    13.5574  15.8116  16.1322  16.1491

     occupation numbers 
     1.0000   1.0000   1.0000   1.0000   0.0000   0.0000   0.0000   0.0000
     0.0000   0.0000   0.0000   0.0000   0.0000   0.0000   0.0000   0.0000
     0.0000   0.0000   0.0000   0.0000

          k = 0.4000 0.0000 0.0000 ( 10239 PWs)   bands (ev):

   -19.0850 -11.2970  -9.8434  -6.7326   2.5633   4.7509   5.5220   5.8053
     6.6884   7.1935   8.4873   8.7408   9.5092   9.6885  11.3613  12.5687
    13.4319  15.9895  16.3886  16.4436

     occupation numbers 
     1.0000   1.0000   1.0000   1.0000   0.0000   0.0000   0.0000   0.0000
     0.0000   0.0000   0.0000   0.0000   0.0000   0.0000   0.0000   0.0000
     0.0000   0.0000   0.0000   0.0000

          k = 0.4167 0.0000 0.0000 ( 10259 PWs)   bands (ev):

   -18.8542 -11.5768 -10.1021  -6.4735   2.2012   5.0760   5.8433   6.1416
     7.0104   7.5249   8.7151   9.0368   9.7978   9.8350  11.4993  12.8896
    13.3572  16.2144  16.5077  16.7411

     occupation numbers 
     1.0000   1.0000   1.0000   1.0000   0.0000   0.0000   0.0000   0.0000
     0.0000   0.0000   0.0000   0.0000   0.0000   0.0000   0.0000   0.0000
     0.0000   0.0000   0.0000   0.0000

          k = 0.4333 0.0000 0.0000 ( 10253 PWs)   bands (ev):

   -18.6152 -11.8507 -10.3577  -6.2075   1.8439   5.4136   6.1742   6.4916
     7.3423   7.8693   8.9487   9.3307   9.9049  10.1737  11.5674  13.2216
    13.3759  16.4582  16.4646  16.9907

     occupation numbers 
     1.0000   1.0000   1.0000   1.0000   0.0000   0.0000   0.0000   0.0000
     0.0000   0.0000   0.0000   0.0000   0.0000   0.0000   0.0000   0.0000
     0.0000   0.0000   0.0000   0.0000

          k = 0.4500 0.0000 0.0000 ( 10261 PWs)   bands (ev):

   -18.3685 -12.1184 -10.6096  -5.9353   1.4923   5.7635   6.5131   6.8553
     7.6826   8.2263   9.1872   9.6127  10.0097  10.5249  11.5760  13.5007
    13.5640  16.2688  16.7139  16.7454

     occupation numbers 
     1.0000   1.0000   1.0000   1.0000   0.0000   0.0000   0.0000   0.0000
     0.0000   0.0000   0.0000   0.0000   0.0000   0.0000   0.0000   0.0000
     0.0000   0.0000   0.0000   0.0000

          k = 0.4667 0.0000 0.0000 ( 10279 PWs)   bands (ev):

   -18.1144 -12.3796 -10.8569  -5.6577   1.1470   6.1253   6.8572   7.2325
     8.0286   8.5954   9.4292   9.8665  10.1117  10.8883  11.5707  13.7127
    13.9155  15.9984  16.3541  16.6903

     occupation numbers 
     1.0000   1.0000   1.0000   1.0000   0.0000   0.0000   0.0000   0.0000
     0.0000   0.0000   0.0000   0.0000   0.0000   0.0000   0.0000   0.0000
     0.0000   0.0000   0.0000   0.0000

          k = 0.4833 0.0000 0.0000 ( 10247 PWs)   bands (ev):

   -17.8533 -12.6339 -11.0989  -5.3755   0.8084   6.4987   7.2017   7.6234
     8.3761   8.9758   9.6735  10.0716  10.2104  11.2634  11.6112  13.9841
    14.2736  15.6913  15.9710  16.2734

     occupation numbers 
     1.0000   1.0000   1.0000   1.0000   0.0000   0.0000   0.0000   0.0000
     0.0000   0.0000   0.0000   0.0000   0.0000   0.0000   0.0000   0.0000
     0.0000   0.0000   0.0000   0.0000

          k = 0.5000 0.0000 0.0000 ( 10263 PWs)   bands (ev):

   -17.5856 -12.8814 -11.3347  -5.0898   0.4773   6.8832   7.5382   8.0277
     8.7183   9.3657   9.9190  10.2200  10.3048  11.6494  11.7430  14.2914
    14.6323  15.3721  15.6078  15.8681

     occupation numbers 
     1.0000   1.0000   1.0000   1.0000   0.0000   0.0000   0.0000   0.0000
     0.0000   0.0000   0.0000   0.0000   0.0000   0.0000   0.0000   0.0000
     0.0000   0.0000   0.0000   0.0000

          k = 0.5167 0.0000 0.0000 ( 10267 PWs)   bands (ev):

   -17.3121 -13.1216 -11.5635  -4.8017   0.1540   7.2780   7.8516   8.4455
     9.0461   9.7600  10.1672  10.3427  10.3936  11.9728  12.0450  14.6139
    14.9545  15.0540  15.2989  15.4748

     occupation numbers 
     1.0000   1.0000   1.0000   1.0000   0.0000   0.0000   0.0000   0.0000
     0.0000   0.0000   0.0000   0.0000   0.0000   0.0000   0.0000   0.0000
     0.0000   0.0000   0.0000   0.0000

          k = 0.5333 0.0000 0.0000 ( 10257 PWs)   bands (ev):

   -17.0337 -13.3546 -11.7841  -4.5123  -0.1611   7.6820   8.1171   8.8767
     9.3545  10.1416  10.4305  10.4752  10.5001  12.2773  12.4480  14.7444
    14.8682  14.9134  15.0937  15.3872

     occupation numbers 
     1.0000   1.0000   1.0000   1.0000   0.0000   0.0000   0.0000   0.0000
     0.0000   0.0000   0.0000   0.0000   0.0000   0.0000   0.0000   0.0000
     0.0000   0.0000   0.0000   0.0000

          k = 0.5500 0.0000 0.0000 ( 10259 PWs)   bands (ev):

   -16.7514 -13.5801 -11.9955  -4.2230  -0.4675   8.0938   8.3052   9.3209
     9.6585  10.4611  10.5474  10.7370  10.7526  12.6300  12.8544  14.4481
    14.5788  14.7251  15.0280  15.1693

     occupation numbers 
     1.0000   1.0000   1.0000   1.0000   0.0000   0.0000   0.0000   0.0000
     0.0000   0.0000   0.0000   0.0000   0.0000   0.0000   0.0000   0.0000
     0.0000   0.0000   0.0000   0.0000

          k = 0.5667 0.0000 0.0000 ( 10247 PWs)   bands (ev):

   -16.4667 -13.7981 -12.1959  -3.9354  -0.7649   8.4024   8.5111   9.7778
     9.9888  10.6076  10.6944  11.0555  11.1499  13.0105  13.2541  14.1680
    14.3051  14.3691  14.8192  14.8203

     occupation numbers 
     1.0000   1.0000   1.0000   1.0000   0.0000   0.0000   0.0000   0.0000
     0.0000   0.0000   0.0000   0.0000   0.0000   0.0000   0.0000   0.0000
     0.0000   0.0000   0.0000   0.0000

          k = 0.5833 0.0000 0.0000 ( 10253 PWs)   bands (ev):

   -16.1819 -14.0083 -12.3832  -3.6510  -1.0530   8.4256   8.9299  10.2463
    10.3614  10.6525  10.8734  11.4334  11.5812  13.3979  13.6074  13.9054
    14.0260  14.0814  14.4904  14.5379

     occupation numbers 
     1.0000   1.0000   1.0000   1.0000   0.0000   0.0000   0.0000   0.0000
     0.0000   0.0000   0.0000   0.0000   0.0000   0.0000   0.0000   0.0000
     0.0000   0.0000   0.0000   0.0000

          k = 0.6000 0.0000 0.0000 ( 10267 PWs)   bands (ev):

   -15.9001 -14.2109 -12.5544  -3.3718  -1.3314   8.4054   9.3441  10.6788
    10.7204  10.7724  11.0150  11.8491  12.0226  13.6594  13.6903  13.6958
    13.7322  14.0339  14.1838  14.3106

     occupation numbers 
     1.0000   1.0000   1.0000   1.0000   0.0000   0.0000   0.0000   0.0000
     0.0000   0.0000   0.0000   0.0000   0.0000   0.0000   0.0000   0.0000
     0.0000   0.0000   0.0000   0.0000

          k = 0.6167 0.0000 0.0000 ( 10259 PWs)   bands (ev):

   -15.6261 -14.4055 -12.7047  -3.0995  -1.6001   8.3676   9.7423  10.6831
    11.0599  11.2113  11.2590  12.2854  12.4553  13.3787  13.4255  13.5128
    13.7653  13.9069  13.9183  14.3668

     occupation numbers 
     1.0000   1.0000   1.0000   1.0003  -0.0004   0.0000   0.0000   0.0000
     0.0000   0.0000   0.0000   0.0000   0.0000   0.0000   0.0000   0.0000
     0.0000   0.0000   0.0000   0.0000

          k = 0.6333 0.0000 0.0000 ( 10243 PWs)   bands (ev):

   -15.3672 -14.5922 -12.8273  -2.8362  -1.8586   8.3294  10.1035  10.6628
    11.1277  11.6671  11.7440  12.7191  12.8384  13.0747  13.1956  13.3023
    13.5711  13.6680  13.7947  14.2814

     occupation numbers 
     1.0000   1.0000   1.0000   1.0141  -0.0150   0.0000   0.0000   0.0000
     0.0000   0.0000   0.0000   0.0000   0.0000   0.0000   0.0000   0.0000
     0.0000   0.0000   0.0000   0.0000

          k = 0.6500 0.0000 0.0000 ( 10235 PWs)   bands (ev):

   -15.1341 -14.7710 -12.9116  -2.5839  -2.1068   8.3016  10.3891  10.6170
    11.1525  12.1221  12.2493  12.7839  12.9620  12.9862  13.0395  13.1936
    13.4708  13.4724  13.8016  13.9890

     occupation numbers 
     1.0000   1.0000   1.0000   1.0078  -0.0065   0.0000   0.0000   0.0000
     0.0000   0.0000   0.0000   0.0000   0.0000   0.0000   0.0000   0.0000
     0.0000   0.0000   0.0000   0.0000

          k = 0.6667 0.0000 0.0000 ( 10245 PWs)   bands (ev):

   -14.9417 -14.9417 -12.9432  -2.3445  -2.3445   8.2913  10.5466  10.5466
    11.1628  12.5064  12.5064  12.7234  12.7234  12.7989  13.0396  13.3154
    13.3154  13.7100  13.7100  13.8544

     occupation numbers 
     1.0000   1.0000   1.0000   0.5001   0.5001   0.0000   0.0000   0.0000
     0.0000   0.0000   0.0000   0.0000   0.0000   0.0000   0.0000   0.0000
     0.0000   0.0000   0.0000   0.0000

          k = 0.6583 0.0144 0.0000 ( 10239 PWs)   bands (ev):

   -15.1043 -14.8054 -12.9072  -2.5715  -2.1197   8.3027  10.4546  10.5608
    11.1327  12.2422  12.4843  12.5281  12.5563  13.1785  13.1837  13.2065
    13.4445  13.4903  13.8453  13.8753

     occupation numbers 
     1.0000   1.0000   1.0000   0.9983   0.0037   0.0000   0.0000   0.0000
     0.0000   0.0000   0.0000   0.0000   0.0000   0.0000   0.0000   0.0000
     0.0000   0.0000   0.0000   0.0000

          k = 0.6500 0.0289 0.0000 ( 10227 PWs)   bands (ev):

   -15.2587 -14.7336 -12.7959  -2.7876  -1.9113   8.3383  10.3453  10.4742
    11.0075  11.9914  12.2495  12.2871  12.3839  13.0626  13.1925  13.3444
    13.3759  13.6861  14.0428  14.1267

     occupation numbers 
     1.0000   1.0000   1.0000   1.0217  -0.0235   0.0000   0.0000   0.0000
     0.0000   0.0000   0.0000   0.0000   0.0000   0.0000   0.0000   0.0000
     0.0000   0.0000   0.0000   0.0000

          k = 0.6417 0.0433 0.0000 ( 10227 PWs)   bands (ev):

   -15.4050 -14.7204 -12.6160  -2.9928  -1.7204   8.3990  10.2236  10.3206
    10.7882  11.7540  12.0227  12.0537  12.1832  12.9404  12.9540  13.2164
    13.3050  14.0514  14.2195  14.4239

     occupation numbers 
     1.0000   1.0000   1.0000   1.0019  -0.0028   0.0000   0.0000   0.0000
     0.0000   0.0000   0.0000   0.0000   0.0000   0.0000   0.0000   0.0000
     0.0000   0.0000   0.0000   0.0000

          k = 0.6333 0.0577 0.0000 ( 10239 PWs)   bands (ev):

   -15.5430 -14.7506 -12.3836  -3.1868  -1.5480   8.4843  10.0941  10.0956
    10.5316  11.5300  11.8060  11.8315  11.9863  12.7291  12.8117  13.0384
    13.1595  14.1525  14.4890  14.7948

     occupation numbers 
     1.0000   1.0000   1.0000   1.0001  -0.0001   0.0000   0.0000   0.0000
     0.0000   0.0000   0.0000   0.0000   0.0000   0.0000   0.0000   0.0000
     0.0000   0.0000   0.0000   0.0000

          k = 0.6250 0.0722 0.0000 ( 10219 PWs)   bands (ev):

   -15.6728 -14.8082 -12.1159  -3.3696  -1.3943   8.5919   9.7776   9.9611
    10.3024  11.3195  11.6005  11.6219  11.8008  12.5177  12.6761  12.8573
    13.0052  14.1109  14.6191  14.7621

     occupation numbers 
     1.0000   1.0000   1.0000   1.0000   0.0000   0.0000   0.0000   0.0000
     0.0000   0.0000   0.0000   0.0000   0.0000   0.0000   0.0000   0.0000
     0.0000   0.0000   0.0000   0.0000

          k = 0.6167 0.0866 0.0000 ( 10247 PWs)   bands (ev):

   -15.7943 -14.8812 -11.8263  -3.5411  -1.2594   8.7183   9.3841   9.8280
    10.1137  11.1224  11.4070  11.4254  11.6300  12.3200  12.5369  12.6821
    12.8595  14.0833  14.4228  14.6852

     occupation numbers 
     1.0000   1.0000   1.0000   1.0000   0.0000   0.0000   0.0000   0.0000
     0.0000   0.0000   0.0000   0.0000   0.0000   0.0000   0.0000   0.0000
     0.0000   0.0000   0.0000   0.0000

          k = 0.6083 0.1010 0.0000 ( 10237 PWs)   bands (ev):

   -15.9075 -14.9613 -11.5245  -3.7011  -1.1427   8.8581   8.9518   9.6975
     9.9496  10.9389  11.2261  11.2422  11.4758  12.1358  12.3976  12.5157
    12.7294  14.0593  14.2400  14.5670

     occupation numbers 
     1.0000   1.0000   1.0000   1.0000   0.0000   0.0000   0.0000   0.0000
     0.0000   0.0000   0.0000   0.0000   0.0000   0.0000   0.0000   0.0000
     0.0000   0.0000   0.0000   0.0000

          k = 0.6000 0.1155 0.0000 ( 10237 PWs)   bands (ev):

   -16.0124 -15.0435 -11.2175  -3.8496  -1.0431   8.5049   9.0043   9.5716
     9.8009  10.7690  11.0580  11.0724  11.3397  11.9652  12.2617  12.3595
    12.6195  14.0308  14.0706  14.4448

     occupation numbers 
     1.0000   1.0000   1.0000   1.0000   0.0000   0.0000   0.0000   0.0000
     0.0000   0.0000   0.0000   0.0000   0.0000   0.0000   0.0000   0.0000
     0.0000   0.0000   0.0000   0.0000

          k = 0.5917 0.1299 0.0000 ( 10243 PWs)   bands (ev):

   -16.1090 -15.1245 -10.9107  -3.9865  -0.9595   8.0575   9.1484   9.4521
     9.6644  10.6125  10.9030  10.9161  11.2227  11.8082  12.1319  12.2143
    12.5332  13.9147  13.9940  14.3255

     occupation numbers 
     1.0000   1.0000   1.0000   1.0000   0.0000   0.0000   0.0000   0.0000
     0.0000   0.0000   0.0000   0.0000   0.0000   0.0000   0.0000   0.0000
     0.0000   0.0000   0.0000   0.0000

          k = 0.5833 0.1443 0.0000 ( 10243 PWs)   bands (ev):

   -16.1972 -15.2020 -10.6089  -4.1117  -0.8903   7.6193   9.2812   9.3403
     9.5392  10.4697  10.7612  10.7733  11.1254  11.6649  12.0100  12.0806
    12.4731  13.7723  13.9485  14.2120

     occupation numbers 
     1.0000   1.0000   1.0000   1.0000   0.0000   0.0000   0.0000   0.0000
     0.0000   0.0000   0.0000   0.0000   0.0000   0.0000   0.0000   0.0000
     0.0000   0.0000   0.0000   0.0000

          k = 0.5750 0.1588 0.0000 ( 10261 PWs)   bands (ev):

   -16.2770 -15.2746 -10.3164  -4.2251  -0.8338   7.1979   9.2371   9.3945
     9.4251  10.3404  10.6327  10.6439  11.0472  11.5352  11.8974  11.9589
    12.4404  13.6434  13.8966  14.1063

     occupation numbers 
     1.0000   1.0000   1.0000   1.0000   0.0000   0.0000   0.0000   0.0000
     0.0000   0.0000   0.0000   0.0000   0.0000   0.0000   0.0000   0.0000
     0.0000   0.0000   0.0000   0.0000

          k = 0.5667 0.1732 0.0000 ( 10269 PWs)   bands (ev):

   -16.3485 -15.3412 -10.0373  -4.3268  -0.7884   6.7996   9.1432   9.3225
     9.4827  10.2247  10.5176  10.5282  10.9860  11.4191  11.7950  11.8494
    12.4336  13.5281  13.8416  14.0096

     occupation numbers 
     1.0000   1.0000   1.0000   1.0000   0.0000   0.0000   0.0000   0.0000
     0.0000   0.0000   0.0000   0.0000   0.0000   0.0000   0.0000   0.0000
     0.0000   0.0000   0.0000   0.0000

          k = 0.5583 0.1876 0.0000 ( 10265 PWs)   bands (ev):

   -16.4116 -15.4012  -9.7760  -4.4166  -0.7526   6.4303   9.0593   9.2313
     9.5444  10.1226  10.4159  10.4259  10.9386  11.3167  11.7036  11.7524
    12.4481  13.4263  13.7866  13.9228

     occupation numbers 
     1.0000   1.0000   1.0000   1.0000   0.0000   0.0000   0.0000   0.0000
     0.0000   0.0000   0.0000   0.0000   0.0000   0.0000   0.0000   0.0000
     0.0000   0.0000   0.0000   0.0000

          k = 0.5500 0.2021 0.0000 ( 10259 PWs)   bands (ev):

   -16.4663 -15.4539  -9.5369  -4.4945  -0.7247   6.0956   8.9859   9.1519
     9.5823  10.0341  10.3278  10.3373  10.9012  11.2279  11.6236  11.6681
    12.4760  13.3381  13.7346  13.8467

     occupation numbers 
     1.0000   1.0000   1.0000   1.0000   0.0000   0.0000   0.0000   0.0000
     0.0000   0.0000   0.0000   0.0000   0.0000   0.0000   0.0000   0.0000
     0.0000   0.0000   0.0000   0.0000

          k = 0.5417 0.2165 0.0000 ( 10255 PWs)   bands (ev):

   -16.5126 -15.4991  -9.3243  -4.5604  -0.7035   5.8009   8.9233   9.0845
     9.6019   9.9592  10.2531  10.2623  10.8711  11.1528  11.5555  11.5965
    12.5088  13.2634  13.6877  13.7815

     occupation numbers 
     1.0000   1.0000   1.0000   1.0000   0.0000   0.0000   0.0000   0.0000
     0.0000   0.0000   0.0000   0.0000   0.0000   0.0000   0.0000   0.0000
     0.0000   0.0000   0.0000   0.0000

          k = 0.5333 0.2309 0.0000 ( 10239 PWs)   bands (ev):

   -16.5504 -15.5363  -9.1428  -4.6145  -0.6878   5.5514   8.8717   9.0291
     9.6092   9.8979  10.1920  10.2010  10.8465  11.0913  11.4994  11.5379
    12.5395  13.2023  13.6475  13.7278

     occupation numbers 
     1.0000   1.0000   1.0000   1.0000   0.0000   0.0000   0.0000   0.0000
     0.0000   0.0000   0.0000   0.0000   0.0000   0.0000   0.0000   0.0000
     0.0000   0.0000   0.0000   0.0000

          k = 0.5250 0.2454 0.0000 ( 10221 PWs)   bands (ev):

   -16.5799 -15.5655  -8.9964  -4.6565  -0.6766   5.3516   8.8313   8.9859
     9.6096   9.8502  10.1445  10.1532  10.8270  11.0435  11.4557  11.4922
    12.5643  13.1548  13.6152  13.6859

     occupation numbers 
     1.0000   1.0000   1.0000   1.0000   0.0000   0.0000   0.0000   0.0000
     0.0000   0.0000   0.0000   0.0000   0.0000   0.0000   0.0000   0.0000
     0.0000   0.0000   0.0000   0.0000

          k = 0.5167 0.2598 0.0000 ( 10215 PWs)   bands (ev):

   -16.6010 -15.5864  -8.8889  -4.6865  -0.6691   5.2057   8.8024   8.9550
     9.6072   9.8161  10.1105  10.1191  10.8127  11.0093  11.4243  11.4595
    12.5816  13.1208  13.5916  13.6557

     occupation numbers 
     1.0000   1.0000   1.0000   1.0000   0.0000   0.0000   0.0000   0.0000
     0.0000   0.0000   0.0000   0.0000   0.0000   0.0000   0.0000   0.0000
     0.0000   0.0000   0.0000   0.0000

          k = 0.5083 0.2742 0.0000 ( 10226 PWs)   bands (ev):

   -16.6136 -15.5990  -8.8232  -4.7046  -0.6648   5.1168   8.7851   8.9364
     9.6047   9.7957  10.0901  10.0986  10.8039  10.9888  11.4055  11.4398
    12.5917  13.1004  13.5772  13.6376

     occupation numbers 
     1.0000   1.0000   1.0000   1.0000   0.0000   0.0000   0.0000   0.0000
     0.0000   0.0000   0.0000   0.0000   0.0000   0.0000   0.0000   0.0000
     0.0000   0.0000   0.0000   0.0000

          k = 0.5000 0.2887 0.0000 ( 10232 PWs)   bands (ev):

   -16.6178 -15.6032  -8.8010  -4.7106  -0.6634   5.0869   8.7793   8.9302
     9.6037   9.7889  10.0833  10.0918  10.8010  10.9820  11.3992  11.4333
    12.5949  13.0936  13.5724  13.6316

     occupation numbers 
     1.0000   1.0000   1.0000   1.0000   0.0000   0.0000   0.0000   0.0000
     0.0000   0.0000   0.0000   0.0000   0.0000   0.0000   0.0000   0.0000
     0.0000   0.0000   0.0000   0.0000

          k = 0.4875 0.2815 0.0000 ( 10234 PWs)   bands (ev):

   -16.6851 -15.5305  -8.7974  -4.7350  -0.6332   5.0887   8.4667   9.2492
     9.3047   9.6821  10.0815  10.5034  10.5092  11.0199  11.2885  11.8213
    12.4210  13.2206  13.2661  13.9885

     occupation numbers 
     1.0000   1.0000   1.0000   1.0000   0.0000   0.0000   0.0000   0.0000
     0.0000   0.0000   0.0000   0.0000   0.0000   0.0000   0.0000   0.0000
     0.0000   0.0000   0.0000   0.0000

          k = 0.4750 0.2742 0.0000 ( 10218 PWs)   bands (ev):

   -16.8485 -15.3506  -8.7863  -4.8061  -0.5449   5.0941   8.0972   8.9344
     9.2846   9.6407  10.0889  10.5126  10.6330  10.9298  11.6540  12.1422
    12.2337  12.8476  13.5492  14.3764

     occupation numbers 
     1.0000   1.0000   1.0000   1.0000   0.0000   0.0000   0.0000   0.0000
     0.0000   0.0000   0.0000   0.0000   0.0000   0.0000   0.0000   0.0000
     0.0000   0.0000   0.0000   0.0000

          k = 0.4625 0.2670 0.0000 ( 10224 PWs)   bands (ev):

   -17.0552 -15.1165  -8.7680  -4.9180  -0.4041   5.1029   7.7333   8.5674
     8.8996   9.7335  10.0336  10.2593  10.8789  11.3656  11.7150  12.1682
    12.4780  12.6572  13.7853  14.6243

     occupation numbers 
     1.0000   1.0000   1.0000   1.0000   0.0000   0.0000   0.0000   0.0000
     0.0000   0.0000   0.0000   0.0000   0.0000   0.0000   0.0000   0.0000
     0.0000   0.0000   0.0000   0.0000

          k = 0.4500 0.2598 0.0000 ( 10216 PWs)   bands (ev):

   -17.2787 -14.8548  -8.7423  -5.0632  -0.2188   5.1152   7.3773   8.2073
     8.5243   9.3740   9.8833  10.4427  11.1620  11.5266  11.8112  12.1216
    12.5403  13.0822  13.8519  14.6775

     occupation numbers 
     1.0000   1.0000   1.0000   1.0000   0.0000   0.0000   0.0000   0.0000
     0.0000   0.0000   0.0000   0.0000   0.0000   0.0000   0.0000   0.0000
     0.0000   0.0000   0.0000   0.0000

          k = 0.4375 0.2526 0.0000 ( 10226 PWs)   bands (ev):

   -17.5075 -14.5769  -8.7094  -5.2338   0.0032   5.1307   7.0300   7.8551
     8.1592   9.0211   9.5254  10.8448  10.9980  11.7590  11.7713  12.2673
    12.9263  13.5140  13.7525  14.7845

     occupation numbers 
     1.0000   1.0000   1.0000   1.0000   0.0000   0.0000   0.0000   0.0000
     0.0000   0.0000   0.0000   0.0000   0.0000   0.0000   0.0000   0.0000
     0.0000   0.0000   0.0000   0.0000

          k = 0.4250 0.2454 0.0000 ( 10228 PWs)   bands (ev):

   -17.7367 -14.2881  -8.6693  -5.4229   0.2547   5.1491   6.6920   7.5115
     7.8043   8.6765   9.1764  10.6931  11.2409  11.4361  12.1176  12.7323
    13.2145  13.6938  13.9480  14.4580

     occupation numbers 
     1.0000   1.0000   1.0000   1.0000   0.0000   0.0000   0.0000   0.0000
     0.0000   0.0000   0.0000   0.0000   0.0000   0.0000   0.0000   0.0000
     0.0000   0.0000   0.0000   0.0000

          k = 0.4125 0.2382 0.0000 ( 10230 PWs)   bands (ev):

   -17.9634 -13.9911  -8.6221  -5.6248   0.5298   5.1698   6.3640   7.1768
     7.4596   8.3408   8.8369  10.3786  11.0920  11.6499  12.4340  13.2066
    13.2197  13.9482  14.1303  14.3890

     occupation numbers 
     1.0000   1.0000   1.0000   1.0000   0.0000   0.0000   0.0000   0.0000
     0.0000   0.0000   0.0000   0.0000   0.0000   0.0000   0.0000   0.0000
     0.0000   0.0000   0.0000   0.0000

          k = 0.4000 0.2309 0.0000 ( 10230 PWs)   bands (ev):

   -18.1864 -13.6874  -8.5679  -5.8350   0.8235   5.1913   6.0475   6.8512
     7.1252   8.0144   8.5073  10.0670  10.7697  12.0356  12.5561  13.2656
    13.6887  13.8200  14.3422  14.8153

     occupation numbers 
     1.0000   1.0000   1.0000   1.0000   0.0000   0.0000   0.0000   0.0000
     0.0000   0.0000   0.0000   0.0000   0.0000   0.0000   0.0000   0.0000
     0.0000   0.0000   0.0000   0.0000

          k = 0.3875 0.2237 0.0000 ( 10220 PWs)   bands (ev):

   -18.4047 -13.3783  -8.5068  -6.0499   1.1320   5.2092   5.7469   6.5351
     6.8011   7.6973   8.1876   9.7615  10.4555  12.4032  12.4259  13.5135
    13.5231  14.1808  14.7521  15.2307

     occupation numbers 
     1.0000   1.0000   1.0000   1.0000   0.0000   0.0000   0.0000   0.0000
     0.0000   0.0000   0.0000   0.0000   0.0000   0.0000   0.0000   0.0000
     0.0000   0.0000   0.0000   0.0000

          k = 0.3750 0.2165 0.0000 ( 10216 PWs)   bands (ev):

   -18.6177 -13.0644  -8.4388  -6.2668   1.4522   5.2000   5.4857   6.2285
     6.4875   7.3899   7.8779   9.4635  10.1506  12.2043  12.7384  13.2192
    13.8401  14.6779  15.1324  15.2075

     occupation numbers 
     1.0000   1.0000   1.0000   1.0000   0.0000   0.0000   0.0000   0.0000
     0.0000   0.0000   0.0000   0.0000   0.0000   0.0000   0.0000   0.0000
     0.0000   0.0000   0.0000   0.0000

          k = 0.3625 0.2093 0.0000 ( 10230 PWs)   bands (ev):

   -18.8251 -12.7464  -8.3643  -6.4837   1.7816   5.0578   5.3693   5.9317
     6.1844   7.0922   7.5783   9.1736   9.8551  11.9595  12.9002  13.0624
    14.1336  14.8153  15.1786  15.4014

     occupation numbers 
     1.0000   1.0000   1.0000   1.0000   0.0000   0.0000   0.0000   0.0000
     0.0000   0.0000   0.0000   0.0000   0.0000   0.0000   0.0000   0.0000
     0.0000   0.0000   0.0000   0.0000

          k = 0.3500 0.2021 0.0000 ( 10224 PWs)   bands (ev):

   -19.0265 -12.4248  -8.2833  -6.6989   2.1178   4.8067   5.3729   5.6448
     5.8924   6.8043   7.2889   8.8923   9.5694  11.7096  12.6373  13.2782
    14.3519  14.4105  15.5344  15.6768

     occupation numbers 
     1.0000   1.0000   1.0000   1.0000   0.0000   0.0000   0.0000   0.0000
     0.0000   0.0000   0.0000   0.0000   0.0000   0.0000   0.0000   0.0000
     0.0000   0.0000   0.0000   0.0000

          k = 0.3375 0.1949 0.0000 ( 10212 PWs)   bands (ev):

   -19.2218 -12.1003  -8.1960  -6.9112   2.4590   4.5426   5.3681   5.3971
     5.6149   6.5263   7.0098   8.6200   9.2933  11.4609  12.3678  13.4350
    13.9962  14.4502  15.6667  16.1464

     occupation numbers 
     1.0000   1.0000   1.0000   1.0000   0.0000   0.0000   0.0000   0.0000
     0.0000   0.0000   0.0000   0.0000   0.0000   0.0000   0.0000   0.0000
     0.0000   0.0000   0.0000   0.0000

          k = 0.3250 0.1876 0.0000 ( 10212 PWs)   bands (ev):

   -19.4108 -11.7732  -8.1027  -7.1196   2.8031   4.2826   5.1019   5.3164
     5.4598   6.2583   6.7413   8.3568   9.0270  11.2164  12.1062  13.5128
    13.5752  14.4274  15.8624  16.0065

     occupation numbers 
     1.0000   1.0000   1.0000   1.0000   0.0000   0.0000   0.0000   0.0000
     0.0000   0.0000   0.0000   0.0000   0.0000   0.0000   0.0000   0.0000
     0.0000   0.0000   0.0000   0.0000

          k = 0.3125 0.1804 0.0000 ( 10224 PWs)   bands (ev):

   -19.5932 -11.4443  -8.0035  -7.3232   3.1478   4.0303   4.8472   5.0648
     5.4888   6.0006   6.4836   8.1030   8.7706  10.9779  11.8537  13.1501
    13.5158  14.3253  15.7659  16.1009

     occupation numbers 
     1.0000   1.0000   1.0000   1.0000   0.0000   0.0000   0.0000   0.0000
     0.0000   0.0000   0.0000   0.0000   0.0000   0.0000   0.0000   0.0000
     0.0000   0.0000   0.0000   0.0000

          k = 0.3000 0.1732 0.0000 ( 10220 PWs)   bands (ev):

   -19.7691 -11.1139  -7.8988  -7.5215   3.4892   3.7868   4.6064   4.8144
     5.5274   5.7532   6.2378   7.8586   8.5242  10.7462  11.6105  12.7230
    13.4559  14.1821  15.5305  16.3515

     occupation numbers 
     1.0000   1.0000   1.0000   1.0000   0.0000   0.0000   0.0000   0.0000
     0.0000   0.0000   0.0000   0.0000   0.0000   0.0000   0.0000   0.0000
     0.0000   0.0000   0.0000   0.0000

          k = 0.2875 0.1660 0.0000 ( 10224 PWs)   bands (ev):

   -19.9383 -10.7828  -7.7890  -7.7138   3.5526   3.8137   4.3914   4.5731
     5.5168   5.5637   6.0072   7.6238   8.2877  10.5222  11.3768  12.2959
    13.3475  14.0193  15.3026  16.5937

     occupation numbers 
     1.0000   1.0000   1.0000   1.0000   0.0000   0.0000   0.0000   0.0000
     0.0000   0.0000   0.0000   0.0000   0.0000   0.0000   0.0000   0.0000
     0.0000   0.0000   0.0000   0.0000

          k = 0.2750 0.1588 0.0000 ( 10230 PWs)   bands (ev):

   -20.1008 -10.4516  -7.8998  -7.6742   3.3279   3.9984   4.3222   4.3418
     5.2928   5.5785   5.8092   7.3988   8.0613  10.3063  11.1527  11.8708
    13.2035  13.8481  15.0830  16.8122

     occupation numbers 
     1.0000   1.0000   1.0000   1.0000   0.0000   0.0000   0.0000   0.0000
     0.0000   0.0000   0.0000   0.0000   0.0000   0.0000   0.0000   0.0000
     0.0000   0.0000   0.0000   0.0000

          k = 0.2625 0.1516 0.0000 ( 10198 PWs)   bands (ev):

   -20.2564 -10.1209  -8.0791  -7.5550   3.1129   3.8624   4.1205   4.5710
     5.0888   5.4860   5.7290   7.1836   7.8449  10.0989  10.9383  11.4491
    13.0343  13.6747  14.8722  16.9914

     occupation numbers 
     1.0000   1.0000   1.0000   1.0000   0.0000   0.0000   0.0000   0.0000
     0.0000   0.0000   0.0000   0.0000   0.0000   0.0000   0.0000   0.0000
     0.0000   0.0000   0.0000   0.0000

          k = 0.2500 0.1443 0.0000 ( 10194 PWs)   bands (ev):

   -20.4051  -9.7915  -8.2513  -7.4318   2.9077   3.6695   3.9095   4.7650
     5.0129   5.3036   5.7485   6.9784   7.6387   9.9002  10.7336  11.0325
    12.8480  13.5028  14.6704  17.1168

     occupation numbers 
     1.0000   1.0000   1.0000   1.0000   0.0000   0.0000   0.0000   0.0000
     0.0000   0.0000   0.0000   0.0000   0.0000   0.0000   0.0000   0.0000
     0.0000   0.0000   0.0000   0.0000

          k = 0.2375 0.1371 0.0000 ( 10180 PWs)   bands (ev):

   -20.5468  -9.4642  -8.4162  -7.3051   2.7123   3.4770   3.7088   4.6310
     5.1127   5.2793   5.7855   6.7835   7.4426   9.7104  10.5386  10.6225
    12.6509  13.3346  14.4778  17.1809

     occupation numbers 
     1.0000   1.0000   1.0000   1.0000   0.0000   0.0000   0.0000   0.0000
     0.0000   0.0000   0.0000   0.0000   0.0000   0.0000   0.0000   0.0000
     0.0000   0.0000   0.0000   0.0000

          k = 0.2250 0.1299 0.0000 ( 10166 PWs)   bands (ev):

   -20.6815  -9.1400  -8.5736  -7.1755   2.5268   3.2918   3.5183   4.4526
     4.9276   5.5957   5.8250   6.5997   7.2569   9.5298  10.2205  10.3535
    12.4476  13.1717  14.2945  17.1886

     occupation numbers 
     1.0000   1.0000   1.0000   1.0000   0.0000   0.0000   0.0000   0.0000
     0.0000   0.0000   0.0000   0.0000   0.0000   0.0000   0.0000   0.0000
     0.0000   0.0000   0.0000   0.0000

          k = 0.2125 0.1227 0.0000 ( 10162 PWs)   bands (ev):

   -20.8091  -8.8198  -8.7232  -7.0435   2.3512   3.1154   3.3380   4.2780
     4.7510   5.8633   5.9078   6.4303   7.0814   9.3585   9.8277  10.1782
    12.2423  13.0150  14.1208  17.1536

     occupation numbers 
     1.0000   1.0000   1.0000   1.0000   0.0000   0.0000   0.0000   0.0000
     0.0000   0.0000   0.0000   0.0000   0.0000   0.0000   0.0000   0.0000
     0.0000   0.0000   0.0000   0.0000

          k = 0.2000 0.1155 0.0000 ( 10154 PWs)   bands (ev):

   -20.9297  -8.8650  -8.5047  -6.9098   2.1855   2.9485   3.1681   4.1118
     4.5839   5.8989   6.1578   6.3268   6.9165   9.1966   9.4456  10.0127
    12.0380  12.8653  13.9567  17.0908

     occupation numbers 
     1.0000   1.0000   1.0000   1.0000   0.0000   0.0000   0.0000   0.0000
     0.0000   0.0000   0.0000   0.0000   0.0000   0.0000   0.0000   0.0000
     0.0000   0.0000   0.0000   0.0000

          k = 0.1875 0.1083 0.0000 ( 10150 PWs)   bands (ev):

   -21.0431  -8.9988  -8.1958  -6.7754   2.0299   2.7914   3.0084   3.9550
     4.4266   5.9304   6.0782   6.5543   6.7622   9.0441   9.0755   9.8571
    11.8376  12.7233  13.8022  17.0116

     occupation numbers 
     1.0000   1.0000   1.0000   1.0000   0.0000   0.0000   0.0000   0.0000
     0.0000   0.0000   0.0000   0.0000   0.0000   0.0000   0.0000   0.0000
     0.0000   0.0000   0.0000   0.0000

          k = 0.1750 0.1010 0.0000 ( 10136 PWs)   bands (ev):

   -21.1493  -9.1243  -7.8945  -6.6409   1.8842   2.6442   2.8591   3.8079
     4.2792   5.9393   5.9566   6.6189   6.8407   8.7187   8.9013   9.7113
    11.6434  12.5893  13.6574  16.9241

     occupation numbers 
     1.0000   1.0000   1.0000   1.0000   0.0000   0.0000   0.0000   0.0000
     0.0000   0.0000   0.0000   0.0000   0.0000   0.0000   0.0000   0.0000
     0.0000   0.0000   0.0000   0.0000

          k = 0.1625 0.0938 0.0000 ( 10138 PWs)   bands (ev):

   -21.2483  -9.2417  -7.6022  -6.5074   1.7485   2.5070   2.7200   3.6708
     4.1419   5.8054   5.9761   6.4872   7.1200   8.3767   8.7681   9.5754
    11.4578  12.4637  13.5224  16.8336

     occupation numbers 
     1.0000   1.0000   1.0000   1.0000   0.0000   0.0000   0.0000   0.0000
     0.0000   0.0000   0.0000   0.0000   0.0000   0.0000   0.0000   0.0000
     0.0000   0.0000   0.0000   0.0000

          k = 0.1500 0.0866 0.0000 ( 10120 PWs)   bands (ev):

   -21.3401  -9.3506  -7.3204  -6.3759   1.6228   2.3798   2.5913   3.5436
     4.0146   5.6803   5.9874   6.3683   7.3873   8.0508   8.6446   9.4494
    11.2825  12.3466  13.3972  16.7437

     occupation numbers 
     1.0000   1.0000   1.0000   1.0000   0.0000   0.0000   0.0000   0.0000
     0.0000   0.0000   0.0000   0.0000   0.0000   0.0000   0.0000   0.0000
     0.0000   0.0000   0.0000   0.0000

          k = 0.1375 0.0794 0.0000 ( 10112 PWs)   bands (ev):

   -21.4247  -9.4511  -7.0508  -6.2475   1.5072   2.2628   2.4728   3.4266
     3.8975   5.5648   5.9876   6.2644   7.6403   7.7425   8.5308   9.3332
    11.1192  12.2384  13.2818  16.6566

     occupation numbers 
     1.0000   1.0000   1.0000   1.0000   0.0000   0.0000   0.0000   0.0000
     0.0000   0.0000   0.0000   0.0000   0.0000   0.0000   0.0000   0.0000
     0.0000   0.0000   0.0000   0.0000

          k = 0.1250 0.0722 0.0000 ( 10116 PWs)   bands (ev):

   -21.5019  -9.5431  -6.7950  -6.1235   1.4016   2.1559   2.3646   3.3197
     3.7905   5.4591   5.9719   6.1804   7.4534   7.8774   8.4270   9.2270
    10.9693  12.1392  13.1764  16.5740

     occupation numbers 
     1.0000   1.0000   1.0000   1.0000   0.0000   0.0000   0.0000   0.0000
     0.0000   0.0000   0.0000   0.0000   0.0000   0.0000   0.0000   0.0000
     0.0000   0.0000   0.0000   0.0000

          k = 0.1125 0.0650 0.0000 ( 10114 PWs)   bands (ev):

   -21.5719  -9.6265  -6.5550  -6.0051   1.3060   2.0591   2.2668   3.2229
     3.6937   5.3633   5.9353   6.1214   7.1850   8.0965   8.3335   9.1307
    10.8338  12.0491  13.0808  16.4972

     occupation numbers 
     1.0000   1.0000   1.0000   1.0000   0.0000   0.0000   0.0000   0.0000
     0.0000   0.0000   0.0000   0.0000   0.0000   0.0000   0.0000   0.0000
     0.0000   0.0000   0.0000   0.0000

          k = 0.1000 0.0577 0.0000 ( 10110 PWs)   bands (ev):

   -21.6345  -9.7013  -6.3328  -5.8939   1.2205   1.9724   2.1792   3.1362
     3.6071   5.2775   5.8817   6.0839   6.9389   8.2425   8.3045   9.0443
    10.7134  11.9682  12.9952  16.4268

     occupation numbers 
     1.0000   1.0000   1.0000   1.0000   0.0000   0.0000   0.0000   0.0000
     0.0000   0.0000   0.0000   0.0000   0.0000   0.0000   0.0000   0.0000
     0.0000   0.0000   0.0000   0.0000

          k = 0.0875 0.0505 0.0000 ( 10118 PWs)   bands (ev):

   -21.6898  -9.7673  -6.1303  -5.7911   1.1451   1.8960   2.1020   3.0598
     3.5307   5.2017   5.8228   6.0574   6.7168   8.1724   8.4813   8.9680
    10.6085  11.8967  12.9196  16.3637

     occupation numbers 
     1.0000   1.0000   1.0000   1.0000   0.0000   0.0000   0.0000   0.0000
     0.0000   0.0000   0.0000   0.0000   0.0000   0.0000   0.0000   0.0000
     0.0000   0.0000   0.0000   0.0000

          k = 0.0750 0.0433 0.0000 ( 10123 PWs)   bands (ev):

   -21.7378  -9.8247  -5.9496  -5.6982   1.0797   1.8297   2.0350   2.9935
     3.4644   5.1360   5.7666   6.0347   6.5202   8.1082   8.6409   8.9017
    10.5190  11.8345  12.8539  16.3082

     occupation numbers 
     1.0000   1.0000   1.0000   1.0000   0.0000   0.0000   0.0000   0.0000
     0.0000   0.0000   0.0000   0.0000   0.0000   0.0000   0.0000   0.0000
     0.0000   0.0000   0.0000   0.0000

          k = 0.0625 0.0361 0.0000 ( 10111 PWs)   bands (ev):

   -21.7783  -9.8732  -5.7925  -5.6167   1.0244   1.7736   1.9784   2.9374
     3.4084   5.0804   5.7169   6.0138   6.3506   8.0537   8.7784   8.8455
    10.4448  11.7818  12.7983  16.2607

     occupation numbers 
     1.0000   1.0000   1.0000   1.0000   0.0000   0.0000   0.0000   0.0000
     0.0000   0.0000   0.0000   0.0000   0.0000   0.0000   0.0000   0.0000
     0.0000   0.0000   0.0000   0.0000

          k = 0.0500 0.0289 0.0000 ( 10113 PWs)   bands (ev):

   -21.8116  -9.9130  -5.6611  -5.5479   0.9791   1.7277   1.9320   2.8915
     3.3625   5.0349   5.6754   5.9944   6.2096   8.0090   8.7995   8.8924
    10.3853  11.7386  12.7528  16.2215

     occupation numbers 
     1.0000   1.0000   1.0000   1.0000   0.0000   0.0000   0.0000   0.0000
     0.0000   0.0000   0.0000   0.0000   0.0000   0.0000   0.0000   0.0000
     0.0000   0.0000   0.0000   0.0000

          k = 0.0375 0.0217 0.0000 ( 10109 PWs)   bands (ev):

   -21.8374  -9.9440  -5.5569  -5.4929   0.9439   1.6920   1.8959   2.8558
     3.3269   4.9995   5.6428   5.9777   6.0985   7.9742   8.7636   8.9822
    10.3398  11.7050  12.7174  16.1909

     occupation numbers 
     1.0000   1.0000   1.0000   1.0000   0.0000   0.0000   0.0000   0.0000
     0.0000   0.0000   0.0000   0.0000   0.0000   0.0000   0.0000   0.0000
     0.0000   0.0000   0.0000   0.0000

          k = 0.0250 0.0144 0.0000 ( 10091 PWs)   bands (ev):

   -21.8559  -9.9661  -5.4814  -5.4529   0.9188   1.6665   1.8702   2.8303
     3.3014   4.9742   5.6193   5.9647   6.0182   7.9493   8.7380   9.0469
    10.3079  11.6809  12.6920  16.1688

     occupation numbers 
     1.0000   1.0000   1.0000   1.0000   0.0000   0.0000   0.0000   0.0000
     0.0000   0.0000   0.0000   0.0000   0.0000   0.0000   0.0000   0.0000
     0.0000   0.0000   0.0000   0.0000

          k = 0.0125 0.0072 0.0000 ( 10067 PWs)   bands (ev):

   -21.8670  -9.9794  -5.4357  -5.4286   0.9037   1.6512   1.8547   2.8150
     3.2861   4.9590   5.6052   5.9564   5.9698   7.9344   8.7226   9.0859
    10.2890  11.6665  12.6768  16.1556

     occupation numbers 
     1.0000   1.0000   1.0000   1.0000   0.0000   0.0000   0.0000   0.0000
     0.0000   0.0000   0.0000   0.0000   0.0000   0.0000   0.0000   0.0000
     0.0000   0.0000   0.0000   0.0000

          k = 0.0000 0.0000 0.0000 ( 10069 PWs)   bands (ev):

   -21.8707  -9.9838  -5.4204  -5.4204   0.8987   1.6461   1.8496   2.8099
     3.2810   4.9540   5.6005   5.9535   5.9535   7.9294   8.7175   9.0990
    10.2827  11.6617  12.6717  16.1512

     occupation numbers 
     1.0000   1.0000   1.0000   1.0000   0.0000   0.0000   0.0000   0.0000
     0.0000   0.0000   0.0000   0.0000   0.0000   0.0000   0.0000   0.0000
     0.0000   0.0000   0.0000   0.0000

     the Fermi energy is    -2.3444 ev
     (compare with:    -2.3446 eV, computed in scf)

     Writing output data file ./2Dgraphene.save/
 
     init_run     :      0.11s CPU      0.22s WALL (       1 calls)
     electrons    :     88.21s CPU     89.94s WALL (       1 calls)

     Called by init_run:
     wfcinit      :      0.00s CPU      0.00s WALL (       1 calls)
     wfcinit:atom :      0.01s CPU      0.02s WALL (     101 calls)
     wfcinit:wfcr :      2.12s CPU      2.17s WALL (     101 calls)
     potinit      :      0.03s CPU      0.03s WALL (       1 calls)
     hinit0       :      0.04s CPU      0.13s WALL (       1 calls)

     Called by electrons:
     c_bands      :     88.21s CPU     89.92s WALL (       1 calls)
     v_of_rho     :      0.01s CPU      0.01s WALL (       1 calls)
     v_h          :      0.00s CPU      0.00s WALL (       1 calls)
     v_xc         :      0.01s CPU      0.01s WALL (       1 calls)
     newd         :      0.01s CPU      0.01s WALL (       1 calls)

     Called by c_bands:
     init_us_2    :      0.02s CPU      0.02s WALL (     101 calls)
     cegterg      :     85.90s CPU     87.55s WALL (     291 calls)

     Called by sum_band:

     Called by *egterg:
     cdiaghg      :     26.09s CPU     26.33s WALL (    4854 calls)
     cegterg:over :      7.67s CPU      7.83s WALL (    4753 calls)
     cegterg:upda :      3.86s CPU      3.92s WALL (    4753 calls)
     cegterg:last :      7.58s CPU      7.65s WALL (    2957 calls)
     cdiaghg:chol :      1.68s CPU      1.70s WALL (    4854 calls)
     cdiaghg:inve :      0.43s CPU      0.43s WALL (    4854 calls)
     cdiaghg:para :      2.38s CPU      2.41s WALL (    9708 calls)
     h_psi        :     40.63s CPU     41.76s WALL (    5145 calls)
     s_psi        :      0.34s CPU      0.36s WALL (    5145 calls)
     g_psi        :      0.36s CPU      0.37s WALL (    4753 calls)

     Called by h_psi:
     h_psi:calbec :      1.70s CPU      1.75s WALL (    5145 calls)
     vloc_psi     :     38.23s CPU     39.28s WALL (    5145 calls)
     add_vuspsi   :      0.49s CPU      0.51s WALL (    5145 calls)

     General routines
     calbec       :      1.67s CPU      1.72s WALL (    5145 calls)
     fft          :      0.01s CPU      0.10s WALL (      11 calls)
     fftw         :     36.09s CPU     37.09s WALL (  112488 calls)
 
     Parallel routines
     fft_scatt_xy :      2.46s CPU      2.52s WALL (  112499 calls)
     fft_scatt_yz :     16.65s CPU     17.09s WALL (  112499 calls)
 
     PWSCF        :   1m29.40s CPU   1m31.93s WALL

 
   This run was terminated on:  11:52:21  18Feb2022            

=------------------------------------------------------------------------------=
   JOB DONE.
=------------------------------------------------------------------------------=
