
     Program BANDS v.6.7MaX starts on 18Feb2022 at 11:54:25 

     This program is part of the open-source Quantum ESPRESSO suite
     for quantum simulation of materials; please cite
         "P. Giannozzi et al., J. Phys.:Condens. Matter 21 395502 (2009);
         "P. Giannozzi et al., J. Phys.:Condens. Matter 29 465901 (2017);
          URL http://www.quantum-espresso.org", 
     in publications or presentations arising from this work. More details at
     http://www.quantum-espresso.org/quote

     Parallel version (MPI), running on    20 processors

     MPI processes distributed on     1 nodes
     R & G space division:  proc/nbgrp/npool/nimage =      20

     Reading xml data from directory:

     ./2Dgraphene.save/
     Message from routine qexsd_readschema :
     input info not found or not readable in xml file
     file C.pbe-rrkjus.UPF: wavefunction(s)  2S 2P renormalized

     IMPORTANT: XC functional enforced from input :
     Exchange-correlation= PBE
                           (   1   4   3   4   0   0   0)
     Any further DFT definition will be discarded
     Please, verify this is what you really want

 
     Parallelization info
     --------------------
     sticks:   dense  smooth     PW     G-vecs:    dense   smooth      PW
     Min          20      20      8                 2643     2643     660
     Max          23      23      9                 2654     2654     683
     Sum         409     409    163                52949    52949   13511
 

     negative rho (up, down):  6.981E-05 0.000E+00
     Reading collected, re-writing distributed wavefunctions
     high-symmetry point:  0.0000 0.0000 0.0000   x coordinate   0.0000
     high-symmetry point:  0.6667 0.0000 0.0000   x coordinate   0.6667
     high-symmetry point:  0.5000 0.2887 0.0000   x coordinate   1.0000
     high-symmetry point:  0.0000 0.0000 0.0000   x coordinate   1.5774

     Plottable bands (eV) written to file 2Dgraphene.bands.gnu
     Bands written to file 2Dgraphene.bands

 **************************************************************************

                    xk=(   0.00000,   0.00000,   0.00000  )

     point group D_6h(6/mmm)
     there are 12 classes
     the character table:

       E     2C6   2C3   C2    3C2'  3C2'' i     2S3   2S6   s_h   3s_d  3s_v 
A_1g   1.00  1.00  1.00  1.00  1.00  1.00  1.00  1.00  1.00  1.00  1.00  1.00
A_2g   1.00  1.00  1.00  1.00 -1.00 -1.00  1.00  1.00  1.00  1.00 -1.00 -1.00
B_1g   1.00 -1.00  1.00 -1.00  1.00 -1.00  1.00 -1.00  1.00 -1.00  1.00 -1.00
B_2g   1.00 -1.00  1.00 -1.00 -1.00  1.00  1.00 -1.00  1.00 -1.00 -1.00  1.00
E_1g   2.00  1.00 -1.00 -2.00  0.00  0.00  2.00  1.00 -1.00 -2.00  0.00  0.00
E_2g   2.00 -1.00 -1.00  2.00  0.00  0.00  2.00 -1.00 -1.00  2.00  0.00  0.00
A_1u   1.00  1.00  1.00  1.00  1.00  1.00 -1.00 -1.00 -1.00 -1.00 -1.00 -1.00
A_2u   1.00  1.00  1.00  1.00 -1.00 -1.00 -1.00 -1.00 -1.00 -1.00  1.00  1.00
B_1u   1.00 -1.00  1.00 -1.00  1.00 -1.00 -1.00  1.00 -1.00  1.00 -1.00  1.00
B_2u   1.00 -1.00  1.00 -1.00 -1.00  1.00 -1.00  1.00 -1.00  1.00  1.00 -1.00
E_1u   2.00  1.00 -1.00 -2.00  0.00  0.00 -2.00 -1.00  1.00  2.00  0.00  0.00
E_2u   2.00 -1.00 -1.00  2.00  0.00  0.00 -2.00  1.00  1.00 -2.00  0.00  0.00

     the symmetry operations in each class and the name of the first element:

     E        1
                                                                 
     2C6      5    6
                                                                 
     2C3      7    8
                                                                 
     C2       2
                                                                 
     3C2'     4   12   11
                                                                 
     3C2''    3    9   10
                                                                 
     i       13
                                                                 
     2S3     17   18
                                                                 
     2S6     19   20
                                                                 
     s_h     14
                                                                 
     3s_d    16   24   23
                                                                 
     3s_v    15   21   22
                                                                 

     Band symmetry, D_6h(6/mmm) point group:

     e(  1 -  1) =    -21.87068  eV     1   --> A_1g           
     e(  2 -  2) =     -9.98380  eV     1   --> A_2u           
     e(  3 -  4) =     -5.42039  eV     2   --> E_2g           
     e(  5 -  5) =      0.89870  eV     1   --> A_1g           
     e(  6 -  6) =      1.64606  eV     1   --> A_2u           
     e(  7 -  7) =      1.84960  eV     1   --> A_1g           
     e(  8 -  8) =      2.80988  eV     1   --> A_2u           
     e(  9 -  9) =      3.28103  eV     1   --> A_1g           
     e( 10 - 10) =      4.95399  eV     1   --> A_2u           
     e( 11 - 11) =      5.60048  eV     1   --> A_1g           
     e( 12 - 13) =      5.95354  eV     2   --> E_1u           
     e( 14 - 14) =      7.92941  eV     1   --> A_2u           
     e( 15 - 15) =      8.71748  eV     1   --> A_1g           
     e( 16 - 16) =      9.09896  eV     1   --> B_1g           
     e( 17 - 17) =     10.28273  eV     1   --> B_2u           
     e( 18 - 18) =     11.66168  eV     1   --> A_2u           
     e( 19 - 19) =     12.67174  eV     1   --> A_1g           
     e( 20 - 20) =     16.15116  eV     1   --> A_2u           

 **************************************************************************

 **************************************************************************

                    xk=(   0.01667,   0.00000,   0.00000  )

     point group C_2v (mm2) 
     there are  4 classes
     the character table:

       E     C2    s_v   s_v' 
A_1    1.00  1.00  1.00  1.00
A_2    1.00  1.00 -1.00 -1.00
B_1    1.00 -1.00  1.00 -1.00
B_2    1.00 -1.00 -1.00  1.00

     the symmetry operations in each class and the name of the first element:

     E        1
                                                                 
     C2       2
                                                                 
     s_v      4
                                                                 
     s_v'     3
                                                                 

     Band symmetry, C_2v (mm2)  point group:

     e(  1 -  1) =    -21.86575  eV     1   --> A_1  D_1  S_1  
     e(  2 -  2) =     -9.97790  eV     1   --> B_1  D_3  S_3  
     e(  3 -  3) =     -5.44079  eV     1   --> B_2  D_4  S_4  
     e(  4 -  4) =     -5.43129  eV     1   --> A_1  D_1  S_1  
     e(  5 -  5) =      0.90540  eV     1   --> A_1  D_1  S_1  
     e(  6 -  6) =      1.65286  eV     1   --> B_1  D_3  S_3  
     e(  7 -  7) =      1.85647  eV     1   --> A_1  D_1  S_1  
     e(  8 -  8) =      2.81669  eV     1   --> B_1  D_3  S_3  
     e(  9 -  9) =      3.28782  eV     1   --> A_1  D_1  S_1  
     e( 10 - 10) =      4.96074  eV     1   --> B_1  D_3  S_3  
     e( 11 - 11) =      5.60677  eV     1   --> A_1  D_1  S_1  
     e( 12 - 12) =      5.95737  eV     1   --> A_1  D_1  S_1  
     e( 13 - 13) =      5.97511  eV     1   --> B_2  D_4  S_4  
     e( 14 - 14) =      7.93604  eV     1   --> B_1  D_3  S_3  
     e( 15 - 15) =      8.72432  eV     1   --> A_1  D_1  S_1  
     e( 16 - 16) =      9.08156  eV     1   --> A_2  D_2  S_2  
     e( 17 - 17) =     10.29109  eV     1   --> B_2  D_4  S_4  
     e( 18 - 18) =     11.66810  eV     1   --> B_1  D_3  S_3  
     e( 19 - 19) =     12.67850  eV     1   --> A_1  D_1  S_1  
     e( 20 - 20) =     16.15706  eV     1   --> B_1  D_3  S_3  

 **************************************************************************

 **************************************************************************

                    xk=(   0.03333,   0.00000,   0.00000  )

     Band symmetry, C_2v (mm2)  point group:

     e(  1 -  1) =    -21.85097  eV     1   --> A_1  D_1  S_1  
     e(  2 -  2) =     -9.96019  eV     1   --> B_1  D_3  S_3  
     e(  3 -  3) =     -5.50141  eV     1   --> B_2  D_4  S_4  
     e(  4 -  4) =     -5.46390  eV     1   --> A_1  D_1  S_1  
     e(  5 -  5) =      0.92551  eV     1   --> A_1  D_1  S_1  
     e(  6 -  6) =      1.67327  eV     1   --> B_1  D_3  S_3  
     e(  7 -  7) =      1.87707  eV     1   --> A_1  D_1  S_1  
     e(  8 -  8) =      2.83709  eV     1   --> B_1  D_3  S_3  
     e(  9 -  9) =      3.30820  eV     1   --> A_1  D_1  S_1  
     e( 10 - 10) =      4.98097  eV     1   --> B_1  D_3  S_3  
     e( 11 - 11) =      5.62559  eV     1   --> A_1  D_1  S_1  
     e( 12 - 12) =      5.96895  eV     1   --> A_1  D_1  S_1  
     e( 13 - 13) =      6.03899  eV     1   --> B_2  D_4  S_4  
     e( 14 - 14) =      7.95594  eV     1   --> B_1  D_3  S_3  
     e( 15 - 15) =      8.74483  eV     1   --> A_1  D_1  S_1  
     e( 16 - 16) =      9.02958  eV     1   --> A_2  D_2  S_2  
     e( 17 - 17) =     10.31639  eV     1   --> B_2  D_4  S_4  
     e( 18 - 18) =     11.68735  eV     1   --> B_1  D_3  S_3  
     e( 19 - 19) =     12.69877  eV     1   --> A_1  D_1  S_1  
     e( 20 - 20) =     16.17472  eV     1   --> B_1  D_3  S_3  

 **************************************************************************

 **************************************************************************

                    xk=(   0.05000,   0.00000,   0.00000  )

     Band symmetry, C_2v (mm2)  point group:

     e(  1 -  1) =    -21.82635  eV     1   --> A_1  D_1  S_1  
     e(  2 -  2) =     -9.93069  eV     1   --> B_1  D_3  S_3  
     e(  3 -  3) =     -5.60052  eV     1   --> B_2  D_4  S_4  
     e(  4 -  4) =     -5.51793  eV     1   --> A_1  D_1  S_1  
     e(  5 -  5) =      0.95903  eV     1   --> A_1  D_1  S_1  
     e(  6 -  6) =      1.70728  eV     1   --> B_1  D_3  S_3  
     e(  7 -  7) =      1.91140  eV     1   --> A_1  D_1  S_1  
     e(  8 -  8) =      2.87110  eV     1   --> B_1  D_3  S_3  
     e(  9 -  9) =      3.34216  eV     1   --> A_1  D_1  S_1  
     e( 10 - 10) =      5.01470  eV     1   --> B_1  D_3  S_3  
     e( 11 - 11) =      5.65685  eV     1   --> A_1  D_1  S_1  
     e( 12 - 12) =      5.98857  eV     1   --> A_1  D_1  S_1  
     e( 13 - 13) =      6.14268  eV     1   --> B_2  D_4  S_4  
     e( 14 - 14) =      7.98908  eV     1   --> B_1  D_3  S_3  
     e( 15 - 15) =      8.77899  eV     1   --> A_1  D_1  S_1  
     e( 16 - 16) =      8.94362  eV     1   --> A_2  D_2  S_2  
     e( 17 - 17) =     10.35929  eV     1   --> B_2  D_4  S_4  
     e( 18 - 18) =     11.71941  eV     1   --> B_1  D_3  S_3  
     e( 19 - 19) =     12.73254  eV     1   --> A_1  D_1  S_1  
     e( 20 - 20) =     16.20403  eV     1   --> B_1  D_3  S_3  

 **************************************************************************

 **************************************************************************

                    xk=(   0.06667,   0.00000,   0.00000  )

     Band symmetry, C_2v (mm2)  point group:

     e(  1 -  1) =    -21.79188  eV     1   --> A_1  D_1  S_1  
     e(  2 -  2) =     -9.88943  eV     1   --> B_1  D_3  S_3  
     e(  3 -  3) =     -5.73545  eV     1   --> B_2  D_4  S_4  
     e(  4 -  4) =     -5.59291  eV     1   --> A_1  D_1  S_1  
     e(  5 -  5) =      1.00596  eV     1   --> A_1  D_1  S_1  
     e(  6 -  6) =      1.75489  eV     1   --> B_1  D_3  S_3  
     e(  7 -  7) =      1.95947  eV     1   --> A_1  D_1  S_1  
     e(  8 -  8) =      2.91871  eV     1   --> B_1  D_3  S_3  
     e(  9 -  9) =      3.38971  eV     1   --> A_1  D_1  S_1  
     e( 10 - 10) =      5.06190  eV     1   --> B_1  D_3  S_3  
     e( 11 - 11) =      5.70040  eV     1   --> A_1  D_1  S_1  
     e( 12 - 12) =      6.01670  eV     1   --> A_1  D_1  S_1  
     e( 13 - 13) =      6.28226  eV     1   --> B_2  D_4  S_4  
     e( 14 - 14) =      8.03546  eV     1   --> B_1  D_3  S_3  
     e( 15 - 15) =      8.82469  eV     1   --> A_2  D_2  S_2  
     e( 16 - 16) =      8.82676  eV     1   --> A_1  D_1  S_1  
     e( 17 - 17) =     10.42090  eV     1   --> B_2  D_4  S_4  
     e( 18 - 18) =     11.76422  eV     1   --> B_1  D_3  S_3  
     e( 19 - 19) =     12.77978  eV     1   --> A_1  D_1  S_1  
     e( 20 - 20) =     16.24477  eV     1   --> B_1  D_3  S_3  

 **************************************************************************

 **************************************************************************

                    xk=(   0.08333,   0.00000,   0.00000  )

     Band symmetry, C_2v (mm2)  point group:

     e(  1 -  1) =    -21.74759  eV     1   --> A_1  D_1  S_1  
     e(  2 -  2) =     -9.83642  eV     1   --> B_1  D_3  S_3  
     e(  3 -  3) =     -5.90288  eV     1   --> B_2  D_4  S_4  
     e(  4 -  4) =     -5.68819  eV     1   --> A_1  D_1  S_1  
     e(  5 -  5) =      1.06631  eV     1   --> A_1  D_1  S_1  
     e(  6 -  6) =      1.81609  eV     1   --> B_1  D_3  S_3  
     e(  7 -  7) =      2.02127  eV     1   --> A_1  D_1  S_1  
     e(  8 -  8) =      2.97991  eV     1   --> B_1  D_3  S_3  
     e(  9 -  9) =      3.45085  eV     1   --> A_1  D_1  S_1  
     e( 10 - 10) =      5.12257  eV     1   --> B_1  D_3  S_3  
     e( 11 - 11) =      5.75595  eV     1   --> A_1  D_1  S_1  
     e( 12 - 12) =      6.05402  eV     1   --> A_1  D_1  S_1  
     e( 13 - 13) =      6.45260  eV     1   --> B_2  D_4  S_4  
     e( 14 - 14) =      8.09504  eV     1   --> B_1  D_3  S_3  
     e( 15 - 15) =      8.67415  eV     1   --> A_2  D_2  S_2  
     e( 16 - 16) =      8.88811  eV     1   --> A_1  D_1  S_1  
     e( 17 - 17) =     10.50280  eV     1   --> B_2  D_4  S_4  
     e( 18 - 18) =     11.82171  eV     1   --> B_1  D_3  S_3  
     e( 19 - 19) =     12.84045  eV     1   --> A_1  D_1  S_1  
     e( 20 - 20) =     16.29663  eV     1   --> B_1  D_3  S_3  

 **************************************************************************

 **************************************************************************

                    xk=(   0.10000,   0.00000,   0.00000  )

     Band symmetry, C_2v (mm2)  point group:

     e(  1 -  1) =    -21.69348  eV     1   --> A_1  D_1  S_1  
     e(  2 -  2) =     -9.77172  eV     1   --> B_1  D_3  S_3  
     e(  3 -  3) =     -6.09908  eV     1   --> B_2  D_4  S_4  
     e(  4 -  4) =     -5.80297  eV     1   --> A_1  D_1  S_1  
     e(  5 -  5) =      1.14008  eV     1   --> A_1  D_1  S_1  
     e(  6 -  6) =      1.89088  eV     1   --> B_1  D_3  S_3  
     e(  7 -  7) =      2.09681  eV     1   --> A_1  D_1  S_1  
     e(  8 -  8) =      3.05469  eV     1   --> B_1  D_3  S_3  
     e(  9 -  9) =      3.52560  eV     1   --> A_1  D_1  S_1  
     e( 10 - 10) =      5.19669  eV     1   --> B_1  D_3  S_3  
     e( 11 - 11) =      5.82307  eV     1   --> A_1  D_1  S_1  
     e( 12 - 12) =      6.10141  eV     1   --> A_1  D_1  S_1  
     e( 13 - 13) =      6.64767  eV     1   --> B_2  D_4  S_4  
     e( 14 - 14) =      8.16780  eV     1   --> B_1  D_3  S_3  
     e( 15 - 15) =      8.49364  eV     1   --> A_2  D_2  S_2  
     e( 16 - 16) =      8.96299  eV     1   --> A_1  D_1  S_1  
     e( 17 - 17) =     10.60699  eV     1   --> B_2  D_4  S_4  
     e( 18 - 18) =     11.89179  eV     1   --> B_1  D_3  S_3  
     e( 19 - 19) =     12.91450  eV     1   --> A_1  D_1  S_1  
     e( 20 - 20) =     16.35911  eV     1   --> B_1  D_3  S_3  

 **************************************************************************

 **************************************************************************

                    xk=(   0.11667,   0.00000,   0.00000  )

     Band symmetry, C_2v (mm2)  point group:

     e(  1 -  1) =    -21.62958  eV     1   --> A_1  D_1  S_1  
     e(  2 -  2) =     -9.69538  eV     1   --> B_1  D_3  S_3  
     e(  3 -  3) =     -6.32021  eV     1   --> B_2  D_4  S_4  
     e(  4 -  4) =     -5.93629  eV     1   --> A_1  D_1  S_1  
     e(  5 -  5) =      1.22727  eV     1   --> A_1  D_1  S_1  
     e(  6 -  6) =      1.97924  eV     1   --> B_1  D_3  S_3  
     e(  7 -  7) =      2.18609  eV     1   --> A_1  D_1  S_1  
     e(  8 -  8) =      3.14305  eV     1   --> B_1  D_3  S_3  
     e(  9 -  9) =      3.61394  eV     1   --> A_1  D_1  S_1  
     e( 10 - 10) =      5.28425  eV     1   --> B_1  D_3  S_3  
     e( 11 - 11) =      5.90110  eV     1   --> A_1  D_1  S_1  
     e( 12 - 12) =      6.15999  eV     1   --> A_1  D_1  S_1  
     e( 13 - 13) =      6.86086  eV     1   --> B_2  D_4  S_4  
     e( 14 - 14) =      8.25368  eV     1   --> B_1  D_3  S_3  
     e( 15 - 15) =      8.28512  eV     1   --> A_2  D_2  S_2  
     e( 16 - 16) =      9.05134  eV     1   --> A_1  D_1  S_1  
     e( 17 - 17) =     10.73588  eV     1   --> B_2  D_4  S_4  
     e( 18 - 18) =     11.97430  eV     1   --> B_1  D_3  S_3  
     e( 19 - 19) =     13.00188  eV     1   --> A_1  D_1  S_1  
     e( 20 - 20) =     16.43150  eV     1   --> B_1  D_3  S_3  

 **************************************************************************

 **************************************************************************

                    xk=(   0.13333,   0.00000,   0.00000  )

     Band symmetry, C_2v (mm2)  point group:

     e(  1 -  1) =    -21.55590  eV     1   --> A_1  D_1  S_1  
     e(  2 -  2) =     -9.60745  eV     1   --> B_1  D_3  S_3  
     e(  3 -  3) =     -6.56247  eV     1   --> B_2  D_4  S_4  
     e(  4 -  4) =     -6.08709  eV     1   --> A_1  D_1  S_1  
     e(  5 -  5) =      1.32788  eV     1   --> A_1  D_1  S_1  
     e(  6 -  6) =      2.08116  eV     1   --> B_1  D_3  S_3  
     e(  7 -  7) =      2.28910  eV     1   --> A_1  D_1  S_1  
     e(  8 -  8) =      3.24498  eV     1   --> B_1  D_3  S_3  
     e(  9 -  9) =      3.71589  eV     1   --> A_1  D_1  S_1  
     e( 10 - 10) =      5.38522  eV     1   --> B_1  D_3  S_3  
     e( 11 - 11) =      5.98912  eV     1   --> A_1  D_1  S_1  
     e( 12 - 12) =      6.23119  eV     1   --> A_1  D_1  S_1  
     e( 13 - 13) =      7.08531  eV     1   --> B_2  D_4  S_4  
     e( 14 - 14) =      8.05070  eV     1   --> A_2  D_2  S_2  
     e( 15 - 15) =      8.35263  eV     1   --> B_1  D_3  S_3  
     e( 16 - 16) =      9.15311  eV     1   --> A_1  D_1  S_1  
     e( 17 - 17) =     10.89207  eV     1   --> B_2  D_4  S_4  
     e( 18 - 18) =     12.06908  eV     1   --> B_1  D_3  S_3  
     e( 19 - 19) =     13.10253  eV     1   --> A_1  D_1  S_1  
     e( 20 - 20) =     16.51273  eV     1   --> B_1  D_3  S_3  

 **************************************************************************

 **************************************************************************

                    xk=(   0.15000,   0.00000,   0.00000  )

     Band symmetry, C_2v (mm2)  point group:

     e(  1 -  1) =    -21.47247  eV     1   --> A_1  D_1  S_1  
     e(  2 -  2) =     -9.50800  eV     1   --> B_1  D_3  S_3  
     e(  3 -  3) =     -6.82231  eV     1   --> B_2  D_4  S_4  
     e(  4 -  4) =     -6.25418  eV     1   --> A_1  D_1  S_1  
     e(  5 -  5) =      1.44191  eV     1   --> A_1  D_1  S_1  
     e(  6 -  6) =      2.19663  eV     1   --> B_1  D_3  S_3  
     e(  7 -  7) =      2.40586  eV     1   --> A_1  D_1  S_1  
     e(  8 -  8) =      3.36045  eV     1   --> B_1  D_3  S_3  
     e(  9 -  9) =      3.83145  eV     1   --> A_1  D_1  S_1  
     e( 10 - 10) =      5.49956  eV     1   --> B_1  D_3  S_3  
     e( 11 - 11) =      6.08590  eV     1   --> A_1  D_1  S_1  
     e( 12 - 12) =      6.31668  eV     1   --> A_1  D_1  S_1  
     e( 13 - 13) =      7.31429  eV     1   --> B_2  D_4  S_4  
     e( 14 - 14) =      7.79266  eV     1   --> A_2  D_2  S_2  
     e( 15 - 15) =      8.46458  eV     1   --> B_1  D_3  S_3  
     e( 16 - 16) =      9.26826  eV     1   --> A_1  D_1  S_1  
     e( 17 - 17) =     11.07819  eV     1   --> B_2  D_4  S_4  
     e( 18 - 18) =     12.17586  eV     1   --> B_1  D_3  S_3  
     e( 19 - 19) =     13.21641  eV     1   --> A_1  D_1  S_1  
     e( 20 - 20) =     16.60116  eV     1   --> B_1  D_3  S_3  

 **************************************************************************

 **************************************************************************

                    xk=(   0.16667,   0.00000,   0.00000  )

     Band symmetry, C_2v (mm2)  point group:

     e(  1 -  1) =    -21.37932  eV     1   --> A_1  D_1  S_1  
     e(  2 -  2) =     -9.39713  eV     1   --> B_1  D_3  S_3  
     e(  3 -  3) =     -7.09644  eV     1   --> B_2  D_4  S_4  
     e(  4 -  4) =     -6.43632  eV     1   --> A_1  D_1  S_1  
     e(  5 -  5) =      1.56936  eV     1   --> A_1  D_1  S_1  
     e(  6 -  6) =      2.32563  eV     1   --> B_1  D_3  S_3  
     e(  7 -  7) =      2.53635  eV     1   --> A_1  D_1  S_1  
     e(  8 -  8) =      3.48946  eV     1   --> B_1  D_3  S_3  
     e(  9 -  9) =      3.96063  eV     1   --> A_1  D_1  S_1  
     e( 10 - 10) =      5.62726  eV     1   --> B_1  D_3  S_3  
     e( 11 - 11) =      6.19010  eV     1   --> A_1  D_1  S_1  
     e( 12 - 12) =      6.41817  eV     1   --> A_1  D_1  S_1  
     e( 13 - 13) =      7.51335  eV     1   --> A_2  D_2  S_2  
     e( 14 - 14) =      7.54164  eV     1   --> B_2  D_4  S_4  
     e( 15 - 15) =      8.58942  eV     1   --> B_1  D_3  S_3  
     e( 16 - 16) =      9.39674  eV     1   --> A_1  D_1  S_1  
     e( 17 - 17) =     11.29647  eV     1   --> B_2  D_4  S_4  
     e( 18 - 18) =     12.29433  eV     1   --> B_1  D_3  S_3  
     e( 19 - 19) =     13.34346  eV     1   --> A_1  D_1  S_1  
     e( 20 - 20) =     16.69420  eV     1   --> B_1  D_3  S_3  

 **************************************************************************

 **************************************************************************

                    xk=(   0.18333,   0.00000,   0.00000  )

     Band symmetry, C_2v (mm2)  point group:

     e(  1 -  1) =    -21.27649  eV     1   --> A_1  D_1  S_1  
     e(  2 -  2) =     -9.27492  eV     1   --> B_1  D_3  S_3  
     e(  3 -  3) =     -7.38193  eV     1   --> B_2  D_4  S_4  
     e(  4 -  4) =     -6.63220  eV     1   --> A_1  D_1  S_1  
     e(  5 -  5) =      1.71021  eV     1   --> A_1  D_1  S_1  
     e(  6 -  6) =      2.46814  eV     1   --> B_1  D_3  S_3  
     e(  7 -  7) =      2.68059  eV     1   --> A_1  D_1  S_1  
     e(  8 -  8) =      3.63199  eV     1   --> B_1  D_3  S_3  
     e(  9 -  9) =      4.10342  eV     1   --> A_1  D_1  S_1  
     e( 10 - 10) =      5.76826  eV     1   --> B_1  D_3  S_3  
     e( 11 - 11) =      6.30075  eV     1   --> A_1  D_1  S_1  
     e( 12 - 12) =      6.53700  eV     1   --> A_1  D_1  S_1  
     e( 13 - 13) =      7.21518  eV     1   --> A_2  D_2  S_2  
     e( 14 - 14) =      7.76221  eV     1   --> B_2  D_4  S_4  
     e( 15 - 15) =      8.72703  eV     1   --> B_1  D_3  S_3  
     e( 16 - 16) =      9.53850  eV     1   --> A_1  D_1  S_1  
     e( 17 - 17) =     11.54836  eV     1   --> B_2  D_4  S_4  
     e( 18 - 18) =     12.42403  eV     1   --> B_1  D_3  S_3  
     e( 19 - 19) =     13.48361  eV     1   --> A_1  D_1  S_1  
     e( 20 - 20) =     16.78763  eV     1   --> B_1  D_3  S_3  

 **************************************************************************

 **************************************************************************

                    xk=(   0.20000,   0.00000,   0.00000  )

     Band symmetry, C_2v (mm2)  point group:

     e(  1 -  1) =    -21.16400  eV     1   --> A_1  D_1  S_1  
     e(  2 -  2) =     -9.14149  eV     1   --> B_1  D_3  S_3  
     e(  3 -  3) =     -7.67617  eV     1   --> B_2  D_4  S_4  
     e(  4 -  4) =     -6.84048  eV     1   --> A_1  D_1  S_1  
     e(  5 -  5) =      1.86447  eV     1   --> A_1  D_1  S_1  
     e(  6 -  6) =      2.62413  eV     1   --> B_1  D_3  S_3  
     e(  7 -  7) =      2.83856  eV     1   --> A_1  D_1  S_1  
     e(  8 -  8) =      3.78800  eV     1   --> B_1  D_3  S_3  
     e(  9 -  9) =      4.25982  eV     1   --> A_1  D_1  S_1  
     e( 10 - 10) =      5.92250  eV     1   --> B_1  D_3  S_3  
     e( 11 - 11) =      6.41763  eV     1   --> A_1  D_1  S_1  
     e( 12 - 12) =      6.67364  eV     1   --> A_1  D_1  S_1  
     e( 13 - 13) =      6.90050  eV     1   --> A_2  D_2  S_2  
     e( 14 - 14) =      7.97221  eV     1   --> B_2  D_4  S_4  
     e( 15 - 15) =      8.87727  eV     1   --> B_1  D_3  S_3  
     e( 16 - 16) =      9.69351  eV     1   --> A_1  D_1  S_1  
     e( 17 - 17) =     11.83415  eV     1   --> B_2  D_4  S_4  
     e( 18 - 18) =     12.56432  eV     1   --> B_1  D_3  S_3  
     e( 19 - 19) =     13.63681  eV     1   --> A_1  D_1  S_1  
     e( 20 - 20) =     16.87423  eV     1   --> B_1  D_3  S_3  

 **************************************************************************

 **************************************************************************

                    xk=(   0.21667,   0.00000,   0.00000  )

     Band symmetry, C_2v (mm2)  point group:

     e(  1 -  1) =    -21.04191  eV     1   --> A_1  D_1  S_1  
     e(  2 -  2) =     -8.99696  eV     1   --> B_1  D_3  S_3  
     e(  3 -  3) =     -7.97687  eV     1   --> B_2  D_4  S_4  
     e(  4 -  4) =     -7.05980  eV     1   --> A_1  D_1  S_1  
     e(  5 -  5) =      2.03212  eV     1   --> A_1  D_1  S_1  
     e(  6 -  6) =      2.79357  eV     1   --> B_1  D_3  S_3  
     e(  7 -  7) =      3.01028  eV     1   --> A_1  D_1  S_1  
     e(  8 -  8) =      3.95746  eV     1   --> B_1  D_3  S_3  
     e(  9 -  9) =      4.42982  eV     1   --> A_1  D_1  S_1  
     e( 10 - 10) =      6.08992  eV     1   --> B_1  D_3  S_3  
     e( 11 - 11) =      6.54126  eV     1   --> A_1  D_1  S_1  
     e( 12 - 12) =      6.57163  eV     1   --> A_2  D_2  S_2  
     e( 13 - 13) =      6.82774  eV     1   --> A_1  D_1  S_1  
     e( 14 - 14) =      8.16939  eV     1   --> B_2  D_4  S_4  
     e( 15 - 15) =      9.03993  eV     1   --> B_1  D_3  S_3  
     e( 16 - 16) =      9.86174  eV     1   --> A_1  D_1  S_1  
     e( 17 - 17) =     12.15276  eV     1   --> B_2  D_4  S_4  
     e( 18 - 18) =     12.71431  eV     1   --> B_1  D_3  S_3  
     e( 19 - 19) =     13.80299  eV     1   --> A_1  D_1  S_1  
     e( 20 - 20) =     16.94139  eV     1   --> B_1  D_3  S_3  

 **************************************************************************

 **************************************************************************

                    xk=(   0.23333,   0.00000,   0.00000  )

     Band symmetry, C_2v (mm2)  point group:

     e(  1 -  1) =    -20.91027  eV     1   --> A_1  D_1  S_1  
     e(  2 -  2) =     -8.84149  eV     1   --> B_1  D_3  S_3  
     e(  3 -  3) =     -8.28205  eV     1   --> B_2  D_4  S_4  
     e(  4 -  4) =     -7.28883  eV     1   --> A_1  D_1  S_1  
     e(  5 -  5) =      2.21313  eV     1   --> A_1  D_1  S_1  
     e(  6 -  6) =      2.97642  eV     1   --> B_1  D_3  S_3  
     e(  7 -  7) =      3.19573  eV     1   --> A_1  D_1  S_1  
     e(  8 -  8) =      4.14035  eV     1   --> B_1  D_3  S_3  
     e(  9 -  9) =      4.61343  eV     1   --> A_1  D_1  S_1  
     e( 10 - 10) =      6.23080  eV     1   --> A_2  D_2  S_2  
     e( 11 - 11) =      6.27044  eV     1   --> B_1  D_3  S_3  
     e( 12 - 12) =      6.67254  eV     1   --> A_1  D_1  S_1  
     e( 13 - 13) =      6.99852  eV     1   --> A_1  D_1  S_1  
     e( 14 - 14) =      8.35293  eV     1   --> B_2  D_4  S_4  
     e( 15 - 15) =      9.21474  eV     1   --> B_1  D_3  S_3  
     e( 16 - 16) =     10.04313  eV     1   --> A_1  D_1  S_1  
     e( 17 - 17) =     12.50175  eV     1   --> B_2  D_4  S_4  
     e( 18 - 18) =     12.87267  eV     1   --> B_1  D_3  S_3  
     e( 19 - 19) =     13.98208  eV     1   --> A_1  D_1  S_1  
     e( 20 - 20) =     16.96777  eV     1   --> B_1  D_3  S_3  

 **************************************************************************

 **************************************************************************

                    xk=(   0.25000,   0.00000,   0.00000  )

     Band symmetry, C_2v (mm2)  point group:

     e(  1 -  1) =    -20.76912  eV     1   --> A_1  D_1  S_1  
     e(  2 -  2) =     -8.67522  eV     1   --> B_1  D_3  S_3  
     e(  3 -  3) =     -8.59000  eV     1   --> B_2  D_4  S_4  
     e(  4 -  4) =     -7.52623  eV     1   --> A_1  D_1  S_1  
     e(  5 -  5) =      2.40750  eV     1   --> A_1  D_1  S_1  
     e(  6 -  6) =      3.17263  eV     1   --> B_1  D_3  S_3  
     e(  7 -  7) =      3.39492  eV     1   --> A_1  D_1  S_1  
     e(  8 -  8) =      4.33662  eV     1   --> B_1  D_3  S_3  
     e(  9 -  9) =      4.81064  eV     1   --> A_1  D_1  S_1  
     e( 10 - 10) =      5.88012  eV     1   --> A_2  D_2  S_2  
     e( 11 - 11) =      6.46394  eV     1   --> B_1  D_3  S_3  
     e( 12 - 12) =      6.81230  eV     1   --> A_1  D_1  S_1  
     e( 13 - 13) =      7.18518  eV     1   --> A_1  D_1  S_1  
     e( 14 - 14) =      8.52322  eV     1   --> B_2  D_4  S_4  
     e( 15 - 15) =      9.40136  eV     1   --> B_1  D_3  S_3  
     e( 16 - 16) =     10.23766  eV     1   --> A_1  D_1  S_1  
     e( 17 - 17) =     12.87753  eV     1   --> B_2  D_4  S_4  
     e( 18 - 18) =     13.03742  eV     1   --> B_1  D_3  S_3  
     e( 19 - 19) =     14.17398  eV     1   --> A_1  D_1  S_1  
     e( 20 - 20) =     16.92322  eV     1   --> B_1  D_3  S_3  

 **************************************************************************

 **************************************************************************

                    xk=(   0.26667,   0.00000,   0.00000  )

     Band symmetry, C_2v (mm2)  point group:

     e(  1 -  1) =    -20.61854  eV     1   --> A_1  D_1  S_1  
     e(  2 -  2) =     -8.89922  eV     1   --> B_2  D_4  S_4  
     e(  3 -  3) =     -8.49834  eV     1   --> B_1  D_3  S_3  
     e(  4 -  4) =     -7.77071  eV     1   --> A_1  D_1  S_1  
     e(  5 -  5) =      2.61519  eV     1   --> A_1  D_1  S_1  
     e(  6 -  6) =      3.38214  eV     1   --> B_1  D_3  S_3  
     e(  7 -  7) =      3.60784  eV     1   --> A_1  D_1  S_1  
     e(  8 -  8) =      4.54621  eV     1   --> B_1  D_3  S_3  
     e(  9 -  9) =      5.02142  eV     1   --> A_1  D_1  S_1  
     e( 10 - 10) =      5.52158  eV     1   --> A_2  D_2  S_2  
     e( 11 - 11) =      6.67029  eV     1   --> B_1  D_3  S_3  
     e( 12 - 12) =      6.96116  eV     1   --> A_1  D_1  S_1  
     e( 13 - 13) =      7.38703  eV     1   --> A_1  D_1  S_1  
     e( 14 - 14) =      8.68139  eV     1   --> B_2  D_4  S_4  
     e( 15 - 15) =      9.59931  eV     1   --> B_1  D_3  S_3  
     e( 16 - 16) =     10.44529  eV     1   --> A_1  D_1  S_1  
     e( 17 - 17) =     13.20538  eV     1   --> B_1  D_3  S_3  
     e( 18 - 18) =     13.27566  eV     1   --> B_2  D_4  S_4  
     e( 19 - 19) =     14.37861  eV     1   --> A_1  D_1  S_1  
     e( 20 - 20) =     16.78416  eV     1   --> B_1  D_3  S_3  

 **************************************************************************

 **************************************************************************

                    xk=(   0.28333,   0.00000,   0.00000  )

     Band symmetry, C_2v (mm2)  point group:

     e(  1 -  1) =    -20.45859  eV     1   --> A_1  D_1  S_1  
     e(  2 -  2) =     -9.20845  eV     1   --> B_2  D_4  S_4  
     e(  3 -  3) =     -8.31107  eV     1   --> B_1  D_3  S_3  
     e(  4 -  4) =     -8.02103  eV     1   --> A_1  D_1  S_1  
     e(  5 -  5) =      2.83617  eV     1   --> A_1  D_1  S_1  
     e(  6 -  6) =      3.60489  eV     1   --> B_1  D_3  S_3  
     e(  7 -  7) =      3.83450  eV     1   --> A_1  D_1  S_1  
     e(  8 -  8) =      4.76905  eV     1   --> B_1  D_3  S_3  
     e(  9 -  9) =      5.15702  eV     1   --> A_2  D_2  S_2  
     e( 10 - 10) =      5.24577  eV     1   --> A_1  D_1  S_1  
     e( 11 - 11) =      6.88932  eV     1   --> B_1  D_3  S_3  
     e( 12 - 12) =      7.11949  eV     1   --> A_1  D_1  S_1  
     e( 13 - 13) =      7.60358  eV     1   --> A_1  D_1  S_1  
     e( 14 - 14) =      8.82902  eV     1   --> B_2  D_4  S_4  
     e( 15 - 15) =      9.80790  eV     1   --> B_1  D_3  S_3  
     e( 16 - 16) =     10.66596  eV     1   --> A_1  D_1  S_1  
     e( 17 - 17) =     13.37143  eV     1   --> B_1  D_3  S_3  
     e( 18 - 18) =     13.69105  eV     1   --> B_2  D_4  S_4  
     e( 19 - 19) =     14.59583  eV     1   --> A_1  D_1  S_1  
     e( 20 - 20) =     16.56041  eV     1   --> B_1  D_3  S_3  

 **************************************************************************

 **************************************************************************

                    xk=(   0.30000,   0.00000,   0.00000  )

     Band symmetry, C_2v (mm2)  point group:

     e(  1 -  1) =    -20.28936  eV     1   --> A_1  D_1  S_1  
     e(  2 -  2) =     -9.51656  eV     1   --> B_2  D_4  S_4  
     e(  3 -  3) =     -8.27600  eV     1   --> A_1  D_1  S_1  
     e(  4 -  4) =     -8.11362  eV     1   --> B_1  D_3  S_3  
     e(  5 -  5) =      3.07040  eV     1   --> A_1  D_1  S_1  
     e(  6 -  6) =      3.84077  eV     1   --> B_1  D_3  S_3  
     e(  7 -  7) =      4.07489  eV     1   --> A_1  D_1  S_1  
     e(  8 -  8) =      4.78815  eV     1   --> A_2  D_2  S_2  
     e(  9 -  9) =      5.00506  eV     1   --> B_1  D_3  S_3  
     e( 10 - 10) =      5.48367  eV     1   --> A_1  D_1  S_1  
     e( 11 - 11) =      7.12079  eV     1   --> B_1  D_3  S_3  
     e( 12 - 12) =      7.28744  eV     1   --> A_1  D_1  S_1  
     e( 13 - 13) =      7.83448  eV     1   --> A_1  D_1  S_1  
     e( 14 - 14) =      8.96776  eV     1   --> B_2  D_4  S_4  
     e( 15 - 15) =     10.02619  eV     1   --> B_1  D_3  S_3  
     e( 16 - 16) =     10.89963  eV     1   --> A_1  D_1  S_1  
     e( 17 - 17) =     13.52688  eV     1   --> B_1  D_3  S_3  
     e( 18 - 18) =     14.11804  eV     1   --> B_2  D_4  S_4  
     e( 19 - 19) =     14.82548  eV     1   --> A_1  D_1  S_1  
     e( 20 - 20) =     16.29340  eV     1   --> B_1  D_3  S_3  

 **************************************************************************

 **************************************************************************

                    xk=(   0.31667,   0.00000,   0.00000  )

     Band symmetry, C_2v (mm2)  point group:

     e(  1 -  1) =    -20.11093  eV     1   --> A_1  D_1  S_1  
     e(  2 -  2) =     -9.82263  eV     1   --> B_2  D_4  S_4  
     e(  3 -  3) =     -8.53447  eV     1   --> A_1  D_1  S_1  
     e(  4 -  4) =     -7.90627  eV     1   --> B_1  D_3  S_3  
     e(  5 -  5) =      3.31784  eV     1   --> A_1  D_1  S_1  
     e(  6 -  6) =      4.08967  eV     1   --> B_1  D_3  S_3  
     e(  7 -  7) =      4.32900  eV     1   --> A_1  D_1  S_1  
     e(  8 -  8) =      4.41654  eV     1   --> A_2  D_2  S_2  
     e(  9 -  9) =      5.25413  eV     1   --> B_1  D_3  S_3  
     e( 10 - 10) =      5.73509  eV     1   --> A_1  D_1  S_1  
     e( 11 - 11) =      7.36439  eV     1   --> B_1  D_3  S_3  
     e( 12 - 12) =      7.46501  eV     1   --> A_1  D_1  S_1  
     e( 13 - 13) =      8.07944  eV     1   --> A_1  D_1  S_1  
     e( 14 - 14) =      9.09921  eV     1   --> B_2  D_4  S_4  
     e( 15 - 15) =     10.25274  eV     1   --> B_1  D_3  S_3  
     e( 16 - 16) =     11.14621  eV     1   --> A_1  D_1  S_1  
     e( 17 - 17) =     13.65717  eV     1   --> B_1  D_3  S_3  
     e( 18 - 18) =     14.55027  eV     1   --> B_2  D_4  S_4  
     e( 19 - 19) =     15.06735  eV     1   --> A_1  D_1  S_1  
     e( 20 - 20) =     16.03192  eV     1   --> B_1  D_3  S_3  

 **************************************************************************

 **************************************************************************

                    xk=(   0.33333,   0.00000,   0.00000  )

     Band symmetry, C_2v (mm2)  point group:

     e(  1 -  1) =    -19.92341  eV     1   --> A_1  D_1  S_1  
     e(  2 -  2) =    -10.12581  eV     1   --> B_2  D_4  S_4  
     e(  3 -  3) =     -8.79537  eV     1   --> A_1  D_1  S_1  
     e(  4 -  4) =     -7.68930  eV     1   --> B_1  D_3  S_3  
     e(  5 -  5) =      3.57844  eV     1   --> A_1  D_1  S_1  
     e(  6 -  6) =      4.04362  eV     1   --> A_2  D_2  S_2  
     e(  7 -  7) =      4.35144  eV     1   --> B_1  D_3  S_3  
     e(  8 -  8) =      4.59683  eV     1   --> A_1  D_1  S_1  
     e(  9 -  9) =      5.51611  eV     1   --> B_1  D_3  S_3  
     e( 10 - 10) =      6.00000  eV     1   --> A_1  D_1  S_1  
     e( 11 - 11) =      7.61970  eV     1   --> B_1  D_3  S_3  
     e( 12 - 12) =      7.65203  eV     1   --> A_1  D_1  S_1  
     e( 13 - 13) =      8.33828  eV     1   --> A_1  D_1  S_1  
     e( 14 - 14) =      9.22479  eV     1   --> B_2  D_4  S_4  
     e( 15 - 15) =     10.48536  eV     1   --> B_1  D_3  S_3  
     e( 16 - 16) =     11.40563  eV     1   --> A_1  D_1  S_1  
     e( 17 - 17) =     13.73987  eV     1   --> B_1  D_3  S_3  
     e( 18 - 18) =     14.98021  eV     1   --> B_2  D_4  S_4  
     e( 19 - 19) =     15.32116  eV     1   --> A_1  D_1  S_1  
     e( 20 - 20) =     15.82270  eV     1   --> B_1  D_3  S_3  

 **************************************************************************

 **************************************************************************

                    xk=(   0.35000,   0.00000,   0.00000  )

     Band symmetry, C_2v (mm2)  point group:

     e(  1 -  1) =    -19.72691  eV     1   --> A_1  D_1  S_1  
     e(  2 -  2) =    -10.42541  eV     1   --> B_2  D_4  S_4  
     e(  3 -  3) =     -9.05765  eV     1   --> A_1  D_1  S_1  
     e(  4 -  4) =     -7.46306  eV     1   --> B_1  D_3  S_3  
     e(  5 -  5) =      3.67071  eV     1   --> A_2  D_2  S_2  
     e(  6 -  6) =      3.85213  eV     1   --> A_1  D_1  S_1  
     e(  7 -  7) =      4.62588  eV     1   --> B_1  D_3  S_3  
     e(  8 -  8) =      4.87839  eV     1   --> A_1  D_1  S_1  
     e(  9 -  9) =      5.79083  eV     1   --> B_1  D_3  S_3  
     e( 10 - 10) =      6.27836  eV     1   --> A_1  D_1  S_1  
     e( 11 - 11) =      7.84823  eV     1   --> A_1  D_1  S_1  
     e( 12 - 12) =      7.88612  eV     1   --> B_1  D_3  S_3  
     e( 13 - 13) =      8.61083  eV     1   --> A_1  D_1  S_1  
     e( 14 - 14) =      9.34569  eV     1   --> B_2  D_4  S_4  
     e( 15 - 15) =     10.72056  eV     1   --> B_1  D_3  S_3  
     e( 16 - 16) =     11.67776  eV     1   --> A_1  D_1  S_1  
     e( 17 - 17) =     13.74997  eV     1   --> B_1  D_3  S_3  
     e( 18 - 18) =     15.39804  eV     1   --> B_2  D_4  S_4  
     e( 19 - 19) =     15.58650  eV     1   --> A_1  D_1  S_1  
     e( 20 - 20) =     15.70754  eV     1   --> B_1  D_3  S_3  

 **************************************************************************

 **************************************************************************

                    xk=(   0.36667,   0.00000,   0.00000  )

     Band symmetry, C_2v (mm2)  point group:

     e(  1 -  1) =    -19.52158  eV     1   --> A_1  D_1  S_1  
     e(  2 -  2) =    -10.72082  eV     1   --> B_2  D_4  S_4  
     e(  3 -  3) =     -9.32036  eV     1   --> A_1  D_1  S_1  
     e(  4 -  4) =     -7.22790  eV     1   --> B_1  D_3  S_3  
     e(  5 -  5) =      3.29898  eV     1   --> A_2  D_2  S_2  
     e(  6 -  6) =      4.13884  eV     1   --> A_1  D_1  S_1  
     e(  7 -  7) =      4.91273  eV     1   --> B_1  D_3  S_3  
     e(  8 -  8) =      5.17365  eV     1   --> A_1  D_1  S_1  
     e(  9 -  9) =      6.07804  eV     1   --> B_1  D_3  S_3  
     e( 10 - 10) =      6.57011  eV     1   --> A_1  D_1  S_1  
     e( 11 - 11) =      8.05321  eV     1   --> A_1  D_1  S_1  
     e( 12 - 12) =      8.16277  eV     1   --> B_1  D_3  S_3  
     e( 13 - 13) =      8.89692  eV     1   --> A_1  D_1  S_1  
     e( 14 - 14) =      9.46283  eV     1   --> B_2  D_4  S_4  
     e( 15 - 15) =     10.95254  eV     1   --> B_1  D_3  S_3  
     e( 16 - 16) =     11.96246  eV     1   --> A_1  D_1  S_1  
     e( 17 - 17) =     13.68011  eV     1   --> B_1  D_3  S_3  
     e( 18 - 18) =     15.70776  eV     1   --> B_1  D_3  S_3  
     e( 19 - 19) =     15.78959  eV     1   --> B_2  D_4  S_4  
     e( 20 - 20) =     15.86279  eV     1   --> A_1  D_1  S_1  

 **************************************************************************

 **************************************************************************

                    xk=(   0.38333,   0.00000,   0.00000  )

     Band symmetry, C_2v (mm2)  point group:

     e(  1 -  1) =    -19.30755  eV     1   --> A_1  D_1  S_1  
     e(  2 -  2) =    -11.01148  eV     1   --> B_2  D_4  S_4  
     e(  3 -  3) =     -9.58258  eV     1   --> A_1  D_1  S_1  
     e(  4 -  4) =     -6.98426  eV     1   --> B_1  D_3  S_3  
     e(  5 -  5) =      2.92951  eV     1   --> A_2  D_2  S_2  
     e(  6 -  6) =      4.43847  eV     1   --> A_1  D_1  S_1  
     e(  7 -  7) =      5.21162  eV     1   --> B_1  D_3  S_3  
     e(  8 -  8) =      5.48262  eV     1   --> A_1  D_1  S_1  
     e(  9 -  9) =      6.37739  eV     1   --> B_1  D_3  S_3  
     e( 10 - 10) =      6.87519  eV     1   --> A_1  D_1  S_1  
     e( 11 - 11) =      8.26646  eV     1   --> A_1  D_1  S_1  
     e( 12 - 12) =      8.44835  eV     1   --> B_1  D_3  S_3  
     e( 13 - 13) =      9.19642  eV     1   --> A_1  D_1  S_1  
     e( 14 - 14) =      9.57695  eV     1   --> B_2  D_4  S_4  
     e( 15 - 15) =     11.17149  eV     1   --> B_1  D_3  S_3  
     e( 16 - 16) =     12.25952  eV     1   --> A_1  D_1  S_1  
     e( 17 - 17) =     13.55743  eV     1   --> B_1  D_3  S_3  
     e( 18 - 18) =     15.81158  eV     1   --> B_1  D_3  S_3  
     e( 19 - 19) =     16.13219  eV     1   --> B_2  D_4  S_4  
     e( 20 - 20) =     16.14908  eV     1   --> A_1  D_1  S_1  

 **************************************************************************

 **************************************************************************

                    xk=(   0.40000,   0.00000,   0.00000  )

     Band symmetry, C_2v (mm2)  point group:

     e(  1 -  1) =    -19.08500  eV     1   --> A_1  D_1  S_1  
     e(  2 -  2) =    -11.29695  eV     1   --> B_2  D_4  S_4  
     e(  3 -  3) =     -9.84342  eV     1   --> A_1  D_1  S_1  
     e(  4 -  4) =     -6.73260  eV     1   --> B_1  D_3  S_3  
     e(  5 -  5) =      2.56328  eV     1   --> A_2  D_2  S_2  
     e(  6 -  6) =      4.75092  eV     1   --> A_1  D_1  S_1  
     e(  7 -  7) =      5.52205  eV     1   --> B_1  D_3  S_3  
     e(  8 -  8) =      5.80527  eV     1   --> A_1  D_1  S_1  
     e(  9 -  9) =      6.68841  eV     1   --> B_1  D_3  S_3  
     e( 10 - 10) =      7.19351  eV     1   --> A_1  D_1  S_1  
     e( 11 - 11) =      8.48734  eV     1   --> A_1  D_1  S_1  
     e( 12 - 12) =      8.74081  eV     1   --> B_1  D_3  S_3  
     e( 13 - 13) =      9.50917  eV     1   --> A_1  D_1  S_1  
     e( 14 - 14) =      9.68852  eV     1   --> B_2  D_4  S_4  
     e( 15 - 15) =     11.36127  eV     1   --> B_1  D_3  S_3  
     e( 16 - 16) =     12.56868  eV     1   --> A_1  D_1  S_1  
     e( 17 - 17) =     13.43190  eV     1   --> B_1  D_3  S_3  
     e( 18 - 18) =     15.98953  eV     1   --> B_1  D_3  S_3  
     e( 19 - 19) =     16.38858  eV     1   --> B_2  D_4  S_4  
     e( 20 - 20) =     16.44356  eV     1   --> A_1  D_1  S_1  

 **************************************************************************

 **************************************************************************

                    xk=(   0.41667,   0.00000,   0.00000  )

     Band symmetry, C_2v (mm2)  point group:

     e(  1 -  1) =    -18.85416  eV     1   --> A_1  D_1  S_1  
     e(  2 -  2) =    -11.57683  eV     1   --> B_2  D_4  S_4  
     e(  3 -  3) =    -10.10207  eV     1   --> A_1  D_1  S_1  
     e(  4 -  4) =     -6.47347  eV     1   --> B_1  D_3  S_3  
     e(  5 -  5) =      2.20115  eV     1   --> A_2  D_2  S_2  
     e(  6 -  6) =      5.07603  eV     1   --> A_1  D_1  S_1  
     e(  7 -  7) =      5.84328  eV     1   --> B_1  D_3  S_3  
     e(  8 -  8) =      6.14161  eV     1   --> A_1  D_1  S_1  
     e(  9 -  9) =      7.01040  eV     1   --> B_1  D_3  S_3  
     e( 10 - 10) =      7.52493  eV     1   --> A_1  D_1  S_1  
     e( 11 - 11) =      8.71508  eV     1   --> A_1  D_1  S_1  
     e( 12 - 12) =      9.03681  eV     1   --> B_1  D_3  S_3  
     e( 13 - 13) =      9.79782  eV     1   --> B_2  D_4  S_4  
     e( 14 - 14) =      9.83499  eV     1   --> A_1  D_1  S_1  
     e( 15 - 15) =     11.49926  eV     1   --> B_1  D_3  S_3  
     e( 16 - 16) =     12.88956  eV     1   --> A_1  D_1  S_1  
     e( 17 - 17) =     13.35718  eV     1   --> B_1  D_3  S_3  
     e( 18 - 18) =     16.21441  eV     1   --> B_1  D_3  S_3  
     e( 19 - 19) =     16.50775  eV     1   --> B_2  D_4  S_4  
     e( 20 - 20) =     16.74108  eV     1   --> A_1  D_1  S_1  

 **************************************************************************

 **************************************************************************

                    xk=(   0.43333,   0.00000,   0.00000  )

     Band symmetry, C_2v (mm2)  point group:

     e(  1 -  1) =    -18.61524  eV     1   --> A_1  D_1  S_1  
     e(  2 -  2) =    -11.85075  eV     1   --> B_2  D_4  S_4  
     e(  3 -  3) =    -10.35772  eV     1   --> A_1  D_1  S_1  
     e(  4 -  4) =     -6.20748  eV     1   --> B_1  D_3  S_3  
     e(  5 -  5) =      1.84392  eV     1   --> A_2  D_2  S_2  
     e(  6 -  6) =      5.41363  eV     1   --> A_1  D_1  S_1  
     e(  7 -  7) =      6.17420  eV     1   --> B_1  D_3  S_3  
     e(  8 -  8) =      6.49161  eV     1   --> A_1  D_1  S_1  
     e(  9 -  9) =      7.34234  eV     1   --> B_1  D_3  S_3  
     e( 10 - 10) =      7.86927  eV     1   --> A_1  D_1  S_1  
     e( 11 - 11) =      8.94873  eV     1   --> A_1  D_1  S_1  
     e( 12 - 12) =      9.33070  eV     1   --> B_1  D_3  S_3  
     e( 13 - 13) =      9.90492  eV     1   --> B_2  D_4  S_4  
     e( 14 - 14) =     10.17367  eV     1   --> A_1  D_1  S_1  
     e( 15 - 15) =     11.56745  eV     1   --> B_1  D_3  S_3  
     e( 16 - 16) =     13.22161  eV     1   --> A_1  D_1  S_1  
     e( 17 - 17) =     13.37589  eV     1   --> B_1  D_3  S_3  
     e( 18 - 18) =     16.45820  eV     1   --> B_2  D_4  S_4  
     e( 19 - 19) =     16.46463  eV     1   --> B_1  D_3  S_3  
     e( 20 - 20) =     16.99071  eV     1   --> A_1  D_1  S_1  

 **************************************************************************

 **************************************************************************

                    xk=(   0.45000,   0.00000,   0.00000  )

     Band symmetry, C_2v (mm2)  point group:

     e(  1 -  1) =    -18.36855  eV     1   --> A_1  D_1  S_1  
     e(  2 -  2) =    -12.11841  eV     1   --> B_2  D_4  S_4  
     e(  3 -  3) =    -10.60959  eV     1   --> A_1  D_1  S_1  
     e(  4 -  4) =     -5.93529  eV     1   --> B_1  D_3  S_3  
     e(  5 -  5) =      1.49231  eV     1   --> A_2  D_2  S_2  
     e(  6 -  6) =      5.76349  eV     1   --> A_1  D_1  S_1  
     e(  7 -  7) =      6.51310  eV     1   --> B_1  D_3  S_3  
     e(  8 -  8) =      6.85526  eV     1   --> A_1  D_1  S_1  
     e(  9 -  9) =      7.68261  eV     1   --> B_1  D_3  S_3  
     e( 10 - 10) =      8.22625  eV     1   --> A_1  D_1  S_1  
     e( 11 - 11) =      9.18720  eV     1   --> A_1  D_1  S_1  
     e( 12 - 12) =      9.61267  eV     1   --> B_1  D_3  S_3  
     e( 13 - 13) =     10.00967  eV     1   --> B_2  D_4  S_4  
     e( 14 - 14) =     10.52491  eV     1   --> A_1  D_1  S_1  
     e( 15 - 15) =     11.57605  eV     1   --> B_1  D_3  S_3  
     e( 16 - 16) =     13.50066  eV     1   --> B_1  D_3  S_3  
     e( 17 - 17) =     13.56403  eV     1   --> A_1  D_1  S_1  
     e( 18 - 18) =     16.26876  eV     1   --> B_2  D_4  S_4  
     e( 19 - 19) =     16.71393  eV     1   --> B_1  D_3  S_3  
     e( 20 - 20) =     16.74541  eV     1   --> A_1  D_1  S_1  

 **************************************************************************

 **************************************************************************

                    xk=(   0.46667,   0.00000,   0.00000  )

     Band symmetry, C_2v (mm2)  point group:

     e(  1 -  1) =    -18.11442  eV     1   --> A_1  D_1  S_1  
     e(  2 -  2) =    -12.37955  eV     1   --> B_2  D_4  S_4  
     e(  3 -  3) =    -10.85690  eV     1   --> A_1  D_1  S_1  
     e(  4 -  4) =     -5.65769  eV     1   --> B_1  D_3  S_3  
     e(  5 -  5) =      1.14695  eV     1   --> A_2  D_2  S_2  
     e(  6 -  6) =      6.12532  eV     1   --> A_1  D_1  S_1  
     e(  7 -  7) =      6.85718  eV     1   --> B_1  D_3  S_3  
     e(  8 -  8) =      7.23252  eV     1   --> A_1  D_1  S_1  
     e(  9 -  9) =      8.02862  eV     1   --> B_1  D_3  S_3  
     e( 10 - 10) =      8.59540  eV     1   --> A_1  D_1  S_1  
     e( 11 - 11) =      9.42922  eV     1   --> A_1  D_1  S_1  
     e( 12 - 12) =      9.86655  eV     1   --> B_1  D_3  S_3  
     e( 13 - 13) =     10.11169  eV     1   --> B_2  D_4  S_4  
     e( 14 - 14) =     10.88834  eV     1   --> A_1  D_1  S_1  
     e( 15 - 15) =     11.57065  eV     1   --> B_1  D_3  S_3  
     e( 16 - 16) =     13.71273  eV     1   --> B_1  D_3  S_3  
     e( 17 - 17) =     13.91550  eV     1   --> A_1  D_1  S_1  
     e( 18 - 18) =     15.99839  eV     1   --> B_2  D_4  S_4  
     e( 19 - 19) =     16.35414  eV     1   --> A_1  D_1  S_1  
     e( 20 - 20) =     16.69034  eV     1   --> A_2  D_2  S_2  

 **************************************************************************

 **************************************************************************

                    xk=(   0.48333,   0.00000,   0.00000  )

     Band symmetry, C_2v (mm2)  point group:

     e(  1 -  1) =    -17.85327  eV     1   --> A_1  D_1  S_1  
     e(  2 -  2) =    -12.63394  eV     1   --> B_2  D_4  S_4  
     e(  3 -  3) =    -11.09888  eV     1   --> A_1  D_1  S_1  
     e(  4 -  4) =     -5.37555  eV     1   --> B_1  D_3  S_3  
     e(  5 -  5) =      0.80844  eV     1   --> A_2  D_2  S_2  
     e(  6 -  6) =      6.49873  eV     1   --> A_1  D_1  S_1  
     e(  7 -  7) =      7.20169  eV     1   --> B_1  D_3  S_3  
     e(  8 -  8) =      7.62336  eV     1   --> A_1  D_1  S_1  
     e(  9 -  9) =      8.37613  eV     1   --> B_1  D_3  S_3  
     e( 10 - 10) =      8.97583  eV     1   --> A_1  D_1  S_1  
     e( 11 - 11) =      9.67346  eV     1   --> A_1  D_1  S_1  
     e( 12 - 12) =     10.07159  eV     1   --> B_1  D_3  S_3  
     e( 13 - 13) =     10.21037  eV     1   --> B_2  D_4  S_4  
     e( 14 - 14) =     11.26343  eV     1   --> A_1  D_1  S_1  
     e( 15 - 15) =     11.61119  eV     1   --> B_1  D_3  S_3  
     e( 16 - 16) =     13.98408  eV     1   --> B_1  D_3  S_3  
     e( 17 - 17) =     14.27359  eV     1   --> A_1  D_1  S_1  
     e( 18 - 18) =     15.69132  eV     1   --> B_2  D_4  S_4  
     e( 19 - 19) =     15.97104  eV     1   --> A_1  D_1  S_1  
     e( 20 - 20) =     16.27343  eV     1   --> A_2  D_2  S_2  

 **************************************************************************

 **************************************************************************

                    xk=(   0.50000,   0.00000,   0.00000  )

     Band symmetry, C_2v (mm2)  point group:

     e(  1 -  1) =    -17.58563  eV     1   --> A_1  D_1  S_1  
     e(  2 -  2) =    -12.88135  eV     1   --> B_2  D_4  S_4  
     e(  3 -  3) =    -11.33471  eV     1   --> A_1  D_1  S_1  
     e(  4 -  4) =     -5.08984  eV     1   --> B_1  D_3  S_3  
     e(  5 -  5) =      0.47728  eV     1   --> A_2  D_2  S_2  
     e(  6 -  6) =      6.88319  eV     1   --> A_1  D_1  S_1  
     e(  7 -  7) =      7.53818  eV     1   --> B_1  D_3  S_3  
     e(  8 -  8) =      8.02772  eV     1   --> A_1  D_1  S_1  
     e(  9 -  9) =      8.71832  eV     1   --> B_1  D_3  S_3  
     e( 10 - 10) =      9.36569  eV     1   --> A_1  D_1  S_1  
     e( 11 - 11) =      9.91898  eV     1   --> A_1  D_1  S_1  
     e( 12 - 12) =     10.21996  eV     1   --> B_1  D_3  S_3  
     e( 13 - 13) =     10.30477  eV     1   --> B_2  D_4  S_4  
     e( 14 - 14) =     11.64939  eV     1   --> A_1  D_1  S_1  
     e( 15 - 15) =     11.74300  eV     1   --> B_1  D_3  S_3  
     e( 16 - 16) =     14.29141  eV     1   --> B_1  D_3  S_3  
     e( 17 - 17) =     14.63233  eV     1   --> A_1  D_1  S_1  
     e( 18 - 18) =     15.37213  eV     1   --> B_2  D_4  S_4  
     e( 19 - 19) =     15.60778  eV     1   --> A_1  D_1  S_1  
     e( 20 - 20) =     15.86812  eV     1   --> A_2  D_2  S_2  

 **************************************************************************

 **************************************************************************

                    xk=(   0.51667,   0.00000,   0.00000  )

     Band symmetry, C_2v (mm2)  point group:

     e(  1 -  1) =    -17.31215  eV     1   --> A_1  D_1  S_1  
     e(  2 -  2) =    -13.12162  eV     1   --> B_2  D_4  S_4  
     e(  3 -  3) =    -11.56347  eV     1   --> A_1  D_1  S_1  
     e(  4 -  4) =     -4.80167  eV     1   --> B_1  D_3  S_3  
     e(  5 -  5) =      0.15397  eV     1   --> A_2  D_2  S_2  
     e(  6 -  6) =      7.27797  eV     1   --> A_1  D_1  S_1  
     e(  7 -  7) =      7.85158  eV     1   --> B_1  D_3  S_3  
     e(  8 -  8) =      8.44553  eV     1   --> A_1  D_1  S_1  
     e(  9 -  9) =      9.04606  eV     1   --> B_1  D_3  S_3  
     e( 10 - 10) =      9.75999  eV     1   --> A_1  D_1  S_1  
     e( 11 - 11) =     10.16718  eV     1   --> A_1  D_1  S_1  
     e( 12 - 12) =     10.34268  eV     1   --> B_1  D_3  S_3  
     e( 13 - 13) =     10.39361  eV     1   --> B_2  D_4  S_4  
     e( 14 - 14) =     11.97280  eV     1   --> B_1  D_3  S_3  
     e( 15 - 15) =     12.04497  eV     1   --> A_1  D_1  S_1  
     e( 16 - 16) =     14.61392  eV     1   --> B_1  D_3  S_3  
     e( 17 - 17) =     14.95454  eV     1   --> A_1  D_1  S_1  
     e( 18 - 18) =     15.05399  eV     1   --> B_2  D_4  S_4  
     e( 19 - 19) =     15.29895  eV     1   --> A_1  D_1  S_1  
     e( 20 - 20) =     15.47478  eV     1   --> A_2  D_2  S_2  

 **************************************************************************

 **************************************************************************

                    xk=(   0.53333,   0.00000,   0.00000  )

     Band symmetry, C_2v (mm2)  point group:

     e(  1 -  1) =    -17.03368  eV     1   --> A_1  D_1  S_1  
     e(  2 -  2) =    -13.35459  eV     1   --> B_2  D_4  S_4  
     e(  3 -  3) =    -11.78414  eV     1   --> A_1  D_1  S_1  
     e(  4 -  4) =     -4.51226  eV     1   --> B_1  D_3  S_3  
     e(  5 -  5) =     -0.16108  eV     1   --> A_2  D_2  S_2  
     e(  6 -  6) =      7.68203  eV     1   --> A_1  D_1  S_1  
     e(  7 -  7) =      8.11714  eV     1   --> B_1  D_3  S_3  
     e(  8 -  8) =      8.87666  eV     1   --> A_1  D_1  S_1  
     e(  9 -  9) =      9.35453  eV     1   --> B_1  D_3  S_3  
     e( 10 - 10) =     10.14164  eV     1   --> A_1  D_1  S_1  
     e( 11 - 11) =     10.43054  eV     1   --> A_1  D_1  S_1  
     e( 12 - 12) =     10.47522  eV     1   --> B_2  D_4  S_4  
     e( 13 - 13) =     10.50011  eV     1   --> B_1  D_3  S_3  
     e( 14 - 14) =     12.27731  eV     1   --> B_1  D_3  S_3  
     e( 15 - 15) =     12.44803  eV     1   --> A_1  D_1  S_1  
     e( 16 - 16) =     14.74444  eV     1   --> B_2  D_4  S_4  
     e( 17 - 17) =     14.86816  eV     1   --> A_1  D_1  S_1  
     e( 18 - 18) =     14.91338  eV     1   --> B_1  D_3  S_3  
     e( 19 - 19) =     15.09368  eV     1   --> A_2  D_2  S_2  
     e( 20 - 20) =     15.38718  eV     1   --> A_1  D_1  S_1  

 **************************************************************************

 **************************************************************************

                    xk=(   0.55000,   0.00000,   0.00000  )

     Band symmetry, C_2v (mm2)  point group:

     e(  1 -  1) =    -16.75135  eV     1   --> A_1  D_1  S_1  
     e(  2 -  2) =    -13.58011  eV     1   --> B_2  D_4  S_4  
     e(  3 -  3) =    -11.99548  eV     1   --> A_1  D_1  S_1  
     e(  4 -  4) =     -4.22299  eV     1   --> B_1  D_3  S_3  
     e(  5 -  5) =     -0.46748  eV     1   --> A_2  D_2  S_2  
     e(  6 -  6) =      8.09384  eV     1   --> A_1  D_1  S_1  
     e(  7 -  7) =      8.30523  eV     1   --> B_1  D_3  S_3  
     e(  8 -  8) =      9.32090  eV     1   --> A_1  D_1  S_1  
     e(  9 -  9) =      9.65853  eV     1   --> B_1  D_3  S_3  
     e( 10 - 10) =     10.46110  eV     1   --> A_1  D_1  S_1  
     e( 11 - 11) =     10.54743  eV     1   --> B_2  D_4  S_4  
     e( 12 - 12) =     10.73701  eV     1   --> B_1  D_3  S_3  
     e( 13 - 13) =     10.75262  eV     1   --> A_1  D_1  S_1  
     e( 14 - 14) =     12.63002  eV     1   --> B_1  D_3  S_3  
     e( 15 - 15) =     12.85444  eV     1   --> A_1  D_1  S_1  
     e( 16 - 16) =     14.44812  eV     1   --> B_2  D_4  S_4  
     e( 17 - 17) =     14.57881  eV     1   --> A_1  D_1  S_1  
     e( 18 - 18) =     14.72507  eV     1   --> A_2  D_2  S_2  
     e( 19 - 19) =     15.02796  eV     1   --> B_1  D_3  S_3  
     e( 20 - 20) =     15.16931  eV     1   --> B_2  D_4  S_4  

 **************************************************************************

 **************************************************************************

                    xk=(   0.56667,   0.00000,   0.00000  )

     Band symmetry, C_2v (mm2)  point group:

     e(  1 -  1) =    -16.46670  eV     1   --> A_1  D_1  S_1  
     e(  2 -  2) =    -13.79806  eV     1   --> B_2  D_4  S_4  
     e(  3 -  3) =    -12.19589  eV     1   --> A_1  D_1  S_1  
     e(  4 -  4) =     -3.93536  eV     1   --> B_1  D_3  S_3  
     e(  5 -  5) =     -0.76488  eV     1   --> A_2  D_2  S_2  
     e(  6 -  6) =      8.40242  eV     1   --> B_1  D_3  S_3  
     e(  7 -  7) =      8.51105  eV     1   --> A_1  D_1  S_1  
     e(  8 -  8) =      9.77782  eV     1   --> A_1  D_1  S_1  
     e(  9 -  9) =      9.98879  eV     1   --> B_1  D_3  S_3  
     e( 10 - 10) =     10.60758  eV     1   --> B_2  D_4  S_4  
     e( 11 - 11) =     10.69437  eV     1   --> A_1  D_1  S_1  
     e( 12 - 12) =     11.05551  eV     1   --> B_1  D_3  S_3  
     e( 13 - 13) =     11.14987  eV     1   --> A_1  D_1  S_1  
     e( 14 - 14) =     13.01054  eV     1   --> B_1  D_3  S_3  
     e( 15 - 15) =     13.25412  eV     1   --> A_1  D_1  S_1  
     e( 16 - 16) =     14.16799  eV     1   --> B_2  D_4  S_4  
     e( 17 - 17) =     14.30511  eV     1   --> A_1  D_1  S_1  
     e( 18 - 18) =     14.36912  eV     1   --> A_2  D_2  S_2  
     e( 19 - 19) =     14.81925  eV     1   --> B_1  D_3  S_3  
     e( 20 - 20) =     14.82026  eV     1   --> B_2  D_4  S_4  

 **************************************************************************

 **************************************************************************

                    xk=(   0.58333,   0.00000,   0.00000  )

     Band symmetry, C_2v (mm2)  point group:

     e(  1 -  1) =    -16.18191  eV     1   --> A_1  D_1  S_1  
     e(  2 -  2) =    -14.00835  eV     1   --> B_2  D_4  S_4  
     e(  3 -  3) =    -12.38321  eV     1   --> A_1  D_1  S_1  
     e(  4 -  4) =     -3.65104  eV     1   --> B_1  D_3  S_3  
     e(  5 -  5) =     -1.05297  eV     1   --> A_2  D_2  S_2  
     e(  6 -  6) =      8.42562  eV     1   --> B_1  D_3  S_3  
     e(  7 -  7) =      8.92991  eV     1   --> A_1  D_1  S_1  
     e(  8 -  8) =     10.24630  eV     1   --> A_1  D_1  S_1  
     e(  9 -  9) =     10.36144  eV     1   --> B_1  D_3  S_3  
     e( 10 - 10) =     10.65251  eV     1   --> B_2  D_4  S_4  
     e( 11 - 11) =     10.87342  eV     1   --> A_1  D_1  S_1  
     e( 12 - 12) =     11.43343  eV     1   --> B_1  D_3  S_3  
     e( 13 - 13) =     11.58122  eV     1   --> A_1  D_1  S_1  
     e( 14 - 14) =     13.39788  eV     1   --> B_1  D_3  S_3  
     e( 15 - 15) =     13.60744  eV     1   --> A_1  D_1  S_1  
     e( 16 - 16) =     13.90539  eV     1   --> B_2  D_4  S_4  
     e( 17 - 17) =     14.02600  eV     1   --> A_2  D_2  S_2  
     e( 18 - 18) =     14.08140  eV     1   --> A_1  D_1  S_1  
     e( 19 - 19) =     14.49044  eV     1   --> B_2  D_4  S_4  
     e( 20 - 20) =     14.53786  eV     1   --> B_1  D_3  S_3  

 **************************************************************************

 **************************************************************************

                    xk=(   0.60000,   0.00000,   0.00000  )

     Band symmetry, C_2v (mm2)  point group:

     e(  1 -  1) =    -15.90014  eV     1   --> A_1  D_1  S_1  
     e(  2 -  2) =    -14.21086  eV     1   --> B_2  D_4  S_4  
     e(  3 -  3) =    -12.55436  eV     1   --> A_1  D_1  S_1  
     e(  4 -  4) =     -3.37180  eV     1   --> B_1  D_3  S_3  
     e(  5 -  5) =     -1.33144  eV     1   --> A_2  D_2  S_2  
     e(  6 -  6) =      8.40540  eV     1   --> B_1  D_3  S_3  
     e(  7 -  7) =      9.34409  eV     1   --> A_1  D_1  S_1  
     e(  8 -  8) =     10.67878  eV     1   --> B_2  D_4  S_4  
     e(  9 -  9) =     10.72037  eV     1   --> A_1  D_1  S_1  
     e( 10 - 10) =     10.77240  eV     1   --> B_1  D_3  S_3  
     e( 11 - 11) =     11.01504  eV     1   --> A_1  D_1  S_1  
     e( 12 - 12) =     11.84906  eV     1   --> B_1  D_3  S_3  
     e( 13 - 13) =     12.02258  eV     1   --> A_1  D_1  S_1  
     e( 14 - 14) =     13.65939  eV     1   --> B_2  D_4  S_4  
     e( 15 - 15) =     13.69035  eV     1   --> A_1  D_1  S_1  
     e( 16 - 16) =     13.69581  eV     1   --> A_2  D_2  S_2  
     e( 17 - 17) =     13.73218  eV     1   --> B_1  D_3  S_3  
     e( 18 - 18) =     14.03392  eV     1   --> A_1  D_1  S_1  
     e( 19 - 19) =     14.18381  eV     1   --> B_2  D_4  S_4  
     e( 20 - 20) =     14.31056  eV     1   --> B_1  D_3  S_3  

 **************************************************************************

 **************************************************************************

                    xk=(   0.61667,   0.00000,   0.00000  )

     Band symmetry, C_2v (mm2)  point group:

     e(  1 -  1) =    -15.62615  eV     1   --> A_1  D_1  S_1  
     e(  2 -  2) =    -14.40551  eV     1   --> B_2  D_4  S_4  
     e(  3 -  3) =    -12.70472  eV     1   --> A_1  D_1  S_1  
     e(  4 -  4) =     -3.09954  eV     1   --> B_1  D_3  S_3  
     e(  5 -  5) =     -1.60005  eV     1   --> A_2  D_2  S_2  
     e(  6 -  6) =      8.36758  eV     1   --> B_1  D_3  S_3  
     e(  7 -  7) =      9.74232  eV     1   --> A_1  D_1  S_1  
     e(  8 -  8) =     10.68308  eV     1   --> B_2  D_4  S_4  
     e(  9 -  9) =     11.05987  eV     1   --> A_1  D_1  S_1  
     e( 10 - 10) =     11.21132  eV     1   --> B_1  D_3  S_3  
     e( 11 - 11) =     11.25903  eV     1   --> A_1  D_1  S_1  
     e( 12 - 12) =     12.28541  eV     1   --> B_1  D_3  S_3  
     e( 13 - 13) =     12.45529  eV     1   --> A_1  D_1  S_1  
     e( 14 - 14) =     13.37868  eV     1   --> A_2  D_2  S_2  
     e( 15 - 15) =     13.42554  eV     1   --> B_2  D_4  S_4  
     e( 16 - 16) =     13.51276  eV     1   --> A_1  D_1  S_1  
     e( 17 - 17) =     13.76532  eV     1   --> B_1  D_3  S_3  
     e( 18 - 18) =     13.90685  eV     1   --> B_2  D_4  S_4  
     e( 19 - 19) =     13.91825  eV     1   --> A_1  D_1  S_1  
     e( 20 - 20) =     14.36681  eV     1   --> B_1  D_3  S_3  

 **************************************************************************

 **************************************************************************

                    xk=(   0.63333,   0.00000,   0.00000  )

     Band symmetry, C_2v (mm2)  point group:

     e(  1 -  1) =    -15.36719  eV     1   --> A_1  D_1  S_1  
     e(  2 -  2) =    -14.59224  eV     1   --> B_2  D_4  S_4  
     e(  3 -  3) =    -12.82730  eV     1   --> A_1  D_1  S_1  
     e(  4 -  4) =     -2.83624  eV     1   --> B_1  D_3  S_3  
     e(  5 -  5) =     -1.85857  eV     1   --> A_2  D_2  S_2  
     e(  6 -  6) =      8.32936  eV     1   --> B_1  D_3  S_3  
     e(  7 -  7) =     10.10353  eV     1   --> A_1  D_1  S_1  
     e(  8 -  8) =     10.66284  eV     1   --> B_2  D_4  S_4  
     e(  9 -  9) =     11.12772  eV     1   --> A_1  D_1  S_1  
     e( 10 - 10) =     11.66709  eV     1   --> B_1  D_3  S_3  
     e( 11 - 11) =     11.74399  eV     1   --> A_1  D_1  S_1  
     e( 12 - 12) =     12.71914  eV     1   --> B_1  D_3  S_3  
     e( 13 - 13) =     12.83844  eV     1   --> A_1  D_1  S_1  
     e( 14 - 14) =     13.07469  eV     1   --> A_2  D_2  S_2  
     e( 15 - 15) =     13.19564  eV     1   --> B_2  D_4  S_4  
     e( 16 - 16) =     13.30228  eV     1   --> A_1  D_1  S_1  
     e( 17 - 17) =     13.57106  eV     1   --> B_1  D_3  S_3  
     e( 18 - 18) =     13.66797  eV     1   --> B_2  D_4  S_4  
     e( 19 - 19) =     13.79473  eV     1   --> A_1  D_1  S_1  
     e( 20 - 20) =     14.28139  eV     1   --> A_2  D_2  S_2  

 **************************************************************************

 **************************************************************************

                    xk=(   0.65000,   0.00000,   0.00000  )

     Band symmetry, C_2v (mm2)  point group:

     e(  1 -  1) =    -15.13411  eV     1   --> A_1  D_1  S_1  
     e(  2 -  2) =    -14.77098  eV     1   --> B_2  D_4  S_4  
     e(  3 -  3) =    -12.91158  eV     1   --> A_1  D_1  S_1  
     e(  4 -  4) =     -2.58390  eV     1   --> B_1  D_3  S_3  
     e(  5 -  5) =     -2.10676  eV     1   --> A_2  D_2  S_2  
     e(  6 -  6) =      8.30163  eV     1   --> B_1  D_3  S_3  
     e(  7 -  7) =     10.38914  eV     1   --> A_1  D_1  S_1  
     e(  8 -  8) =     10.61703  eV     1   --> B_2  D_4  S_4  
     e(  9 -  9) =     11.15254  eV     1   --> A_1  D_1  S_1  
     e( 10 - 10) =     12.12211  eV     1   --> B_1  D_3  S_3  
     e( 11 - 11) =     12.24930  eV     1   --> A_1  D_1  S_1  
     e( 12 - 12) =     12.78390  eV     1   --> A_2  D_2  S_2  
     e( 13 - 13) =     12.96197  eV     1   --> B_2  D_4  S_4  
     e( 14 - 14) =     12.98615  eV     1   --> A_1  D_1  S_1  
     e( 15 - 15) =     13.03955  eV     1   --> B_1  D_3  S_3  
     e( 16 - 16) =     13.19364  eV     1   --> A_1  D_1  S_1  
     e( 17 - 17) =     13.47082  eV     1   --> B_1  D_3  S_3  
     e( 18 - 18) =     13.47237  eV     1   --> B_2  D_4  S_4  
     e( 19 - 19) =     13.80159  eV     1   --> A_1  D_1  S_1  
     e( 20 - 20) =     13.98896  eV     1   --> A_2  D_2  S_2  

 **************************************************************************

 **************************************************************************

                    xk=(   0.66667,   0.00000,   0.00000  )

     point group D_3h (-62m)
     there are  6 classes
     the character table:

       E     2C3   3C2   s_h   2S3   3s_v 
A'_1   1.00  1.00  1.00  1.00  1.00  1.00
A'_2   1.00  1.00 -1.00  1.00  1.00 -1.00
E'     2.00 -1.00  0.00  2.00 -1.00  0.00
A''1   1.00  1.00  1.00 -1.00 -1.00 -1.00
A''2   1.00  1.00 -1.00 -1.00 -1.00  1.00
E''    2.00 -1.00  0.00 -2.00  1.00  0.00

     the symmetry operations in each class and the name of the first element:

     E        1
                                                                 
     2C3      3    4
                                                                 
     3C2      2    5    6
                                                                 
     s_h      7
                                                                 
     2S3      9   10
                                                                 
     3s_v     8   12   11
                                                                 

     Band symmetry, D_3h (-62m) point group:

     e(  1 -  2) =    -14.94167  eV     2   --> E'             
     e(  3 -  3) =    -12.94321  eV     1   --> A'_1           
     e(  4 -  5) =     -2.34445  eV     2   --> E''            
     e(  6 -  6) =      8.29132  eV     1   --> A''2           
     e(  7 -  8) =     10.54664  eV     2   --> E'             
     e(  9 -  9) =     11.16285  eV     1   --> A'_1           
     e( 10 - 11) =     12.50639  eV     2   --> E''            
     e( 12 - 13) =     12.72338  eV     2   --> E'             
     e( 14 - 14) =     12.79888  eV     1   --> A'_1           
     e( 15 - 15) =     13.03959  eV     1   --> A''2           
     e( 16 - 17) =     13.31536  eV     2   --> E'             
     e( 18 - 19) =     13.70998  eV     2   --> E''            
     e( 20 - 20) =     13.85440  eV     1   --> A'_1           

 **************************************************************************

 **************************************************************************

                    xk=(   0.65833,   0.01443,   0.00000  )

     point group C_2v (mm2) 
     there are  4 classes
     the character table:

       E     C2    s_v   s_v' 
A_1    1.00  1.00  1.00  1.00
A_2    1.00  1.00 -1.00 -1.00
B_1    1.00 -1.00  1.00 -1.00
B_2    1.00 -1.00 -1.00  1.00

     the symmetry operations in each class and the name of the first element:

     E        1
                                                                 
     C2       2
                                                                 
     s_v      4
                                                                 
     s_v'     3
                                                                 

     Band symmetry, C_2v (mm2)  point group:

     e(  1 -  1) =    -15.10426  eV     1   --> B_2  D_4  S_4  
     e(  2 -  2) =    -14.80544  eV     1   --> A_1  D_1  S_1  
     e(  3 -  3) =    -12.90715  eV     1   --> A_1  D_1  S_1  
     e(  4 -  4) =     -2.57146  eV     1   --> A_2  D_2  S_2  
     e(  5 -  5) =     -2.11972  eV     1   --> B_1  D_3  S_3  
     e(  6 -  6) =      8.30273  eV     1   --> B_1  D_3  S_3  
     e(  7 -  7) =     10.45461  eV     1   --> B_2  D_4  S_4  
     e(  8 -  8) =     10.56078  eV     1   --> A_1  D_1  S_1  
     e(  9 -  9) =     11.13273  eV     1   --> A_1  D_1  S_1  
     e( 10 - 10) =     12.24220  eV     1   --> A_2  D_2  S_2  
     e( 11 - 11) =     12.48425  eV     1   --> B_2  D_4  S_4  
     e( 12 - 12) =     12.52807  eV     1   --> A_1  D_1  S_1  
     e( 13 - 13) =     12.55632  eV     1   --> B_1  D_3  S_3  
     e( 14 - 14) =     13.17846  eV     1   --> A_1  D_1  S_1  
     e( 15 - 15) =     13.18374  eV     1   --> B_2  D_4  S_4  
     e( 16 - 16) =     13.20645  eV     1   --> B_1  D_3  S_3  
     e( 17 - 17) =     13.44448  eV     1   --> A_2  D_2  S_2  
     e( 18 - 18) =     13.49028  eV     1   --> A_1  D_1  S_1  
     e( 19 - 19) =     13.84527  eV     1   --> A_1  D_1  S_1  
     e( 20 - 20) =     13.87530  eV     1   --> B_1  D_3  S_3  

 **************************************************************************

 **************************************************************************

                    xk=(   0.65000,   0.02887,   0.00000  )

     Band symmetry, C_2v (mm2)  point group:

     e(  1 -  1) =    -15.25870  eV     1   --> B_2  D_4  S_4  
     e(  2 -  2) =    -14.73357  eV     1   --> A_1  D_1  S_1  
     e(  3 -  3) =    -12.79593  eV     1   --> A_1  D_1  S_1  
     e(  4 -  4) =     -2.78762  eV     1   --> A_2  D_2  S_2  
     e(  5 -  5) =     -1.91129  eV     1   --> B_1  D_3  S_3  
     e(  6 -  6) =      8.33834  eV     1   --> B_1  D_3  S_3  
     e(  7 -  7) =     10.34529  eV     1   --> B_2  D_4  S_4  
     e(  8 -  8) =     10.47421  eV     1   --> A_1  D_1  S_1  
     e(  9 -  9) =     11.00746  eV     1   --> A_1  D_1  S_1  
     e( 10 - 10) =     11.99138  eV     1   --> A_2  D_2  S_2  
     e( 11 - 11) =     12.24955  eV     1   --> B_2  D_4  S_4  
     e( 12 - 12) =     12.28706  eV     1   --> A_1  D_1  S_1  
     e( 13 - 13) =     12.38387  eV     1   --> B_1  D_3  S_3  
     e( 14 - 14) =     13.06260  eV     1   --> B_2  D_4  S_4  
     e( 15 - 15) =     13.19249  eV     1   --> A_2  D_2  S_2  
     e( 16 - 16) =     13.34439  eV     1   --> A_1  D_1  S_1  
     e( 17 - 17) =     13.37595  eV     1   --> B_1  D_3  S_3  
     e( 18 - 18) =     13.68609  eV     1   --> A_1  D_1  S_1  
     e( 19 - 19) =     14.04280  eV     1   --> B_1  D_3  S_3  
     e( 20 - 20) =     14.12667  eV     1   --> A_1  D_1  S_1  

 **************************************************************************

 **************************************************************************

                    xk=(   0.64167,   0.04330,   0.00000  )

     Band symmetry, C_2v (mm2)  point group:

     e(  1 -  1) =    -15.40496  eV     1   --> B_2  D_4  S_4  
     e(  2 -  2) =    -14.72040  eV     1   --> A_1  D_1  S_1  
     e(  3 -  3) =    -12.61598  eV     1   --> A_1  D_1  S_1  
     e(  4 -  4) =     -2.99279  eV     1   --> A_2  D_2  S_2  
     e(  5 -  5) =     -1.72043  eV     1   --> B_1  D_3  S_3  
     e(  6 -  6) =      8.39904  eV     1   --> B_1  D_3  S_3  
     e(  7 -  7) =     10.22356  eV     1   --> B_2  D_4  S_4  
     e(  8 -  8) =     10.32064  eV     1   --> A_1  D_1  S_1  
     e(  9 -  9) =     10.78821  eV     1   --> A_1  D_1  S_1  
     e( 10 - 10) =     11.75396  eV     1   --> A_2  D_2  S_2  
     e( 11 - 11) =     12.02275  eV     1   --> B_2  D_4  S_4  
     e( 12 - 12) =     12.05369  eV     1   --> A_1  D_1  S_1  
     e( 13 - 13) =     12.18317  eV     1   --> B_1  D_3  S_3  
     e( 14 - 14) =     12.94044  eV     1   --> B_2  D_4  S_4  
     e( 15 - 15) =     12.95402  eV     1   --> A_2  D_2  S_2  
     e( 16 - 16) =     13.21641  eV     1   --> A_1  D_1  S_1  
     e( 17 - 17) =     13.30498  eV     1   --> B_1  D_3  S_3  
     e( 18 - 18) =     14.05137  eV     1   --> A_1  D_1  S_1  
     e( 19 - 19) =     14.21945  eV     1   --> B_2  D_4  S_4  
     e( 20 - 20) =     14.42388  eV     1   --> B_1  D_3  S_3  

 **************************************************************************

 **************************************************************************

                    xk=(   0.63333,   0.05774,   0.00000  )

     Band symmetry, C_2v (mm2)  point group:

     e(  1 -  1) =    -15.54300  eV     1   --> B_2  D_4  S_4  
     e(  2 -  2) =    -14.75062  eV     1   --> A_1  D_1  S_1  
     e(  3 -  3) =    -12.38360  eV     1   --> A_1  D_1  S_1  
     e(  4 -  4) =     -3.18684  eV     1   --> A_2  D_2  S_2  
     e(  5 -  5) =     -1.54798  eV     1   --> B_1  D_3  S_3  
     e(  6 -  6) =      8.48425  eV     1   --> B_1  D_3  S_3  
     e(  7 -  7) =     10.09413  eV     1   --> B_2  D_4  S_4  
     e(  8 -  8) =     10.09558  eV     1   --> A_1  D_1  S_1  
     e(  9 -  9) =     10.53159  eV     1   --> A_1  D_1  S_1  
     e( 10 - 10) =     11.52998  eV     1   --> A_2  D_2  S_2  
     e( 11 - 11) =     11.80597  eV     1   --> B_2  D_4  S_4  
     e( 12 - 12) =     11.83147  eV     1   --> A_1  D_1  S_1  
     e( 13 - 13) =     11.98625  eV     1   --> B_1  D_3  S_3  
     e( 14 - 14) =     12.72910  eV     1   --> A_2  D_2  S_2  
     e( 15 - 15) =     12.81167  eV     1   --> B_2  D_4  S_4  
     e( 16 - 16) =     13.03841  eV     1   --> A_1  D_1  S_1  
     e( 17 - 17) =     13.15950  eV     1   --> B_1  D_3  S_3  
     e( 18 - 18) =     14.15250  eV     1   --> B_2  D_4  S_4  
     e( 19 - 19) =     14.48896  eV     1   --> A_1  D_1  S_1  
     e( 20 - 20) =     14.79484  eV     1   --> B_1  D_3  S_3  

 **************************************************************************

 **************************************************************************

                    xk=(   0.62500,   0.07217,   0.00000  )

     Band symmetry, C_2v (mm2)  point group:

     e(  1 -  1) =    -15.67279  eV     1   --> B_2  D_4  S_4  
     e(  2 -  2) =    -14.80824  eV     1   --> A_1  D_1  S_1  
     e(  3 -  3) =    -12.11589  eV     1   --> A_1  D_1  S_1  
     e(  4 -  4) =     -3.36965  eV     1   --> A_2  D_2  S_2  
     e(  5 -  5) =     -1.39435  eV     1   --> B_1  D_3  S_3  
     e(  6 -  6) =      8.59191  eV     1   --> B_1  D_3  S_3  
     e(  7 -  7) =      9.77764  eV     1   --> A_1  D_1  S_1  
     e(  8 -  8) =      9.96114  eV     1   --> B_2  D_4  S_4  
     e(  9 -  9) =     10.30235  eV     1   --> A_1  D_1  S_1  
     e( 10 - 10) =     11.31947  eV     1   --> A_2  D_2  S_2  
     e( 11 - 11) =     11.60047  eV     1   --> B_2  D_4  S_4  
     e( 12 - 12) =     11.62185  eV     1   --> A_1  D_1  S_1  
     e( 13 - 13) =     11.80078  eV     1   --> B_1  D_3  S_3  
     e( 14 - 14) =     12.51775  eV     1   --> A_2  D_2  S_2  
     e( 15 - 15) =     12.67614  eV     1   --> B_2  D_4  S_4  
     e( 16 - 16) =     12.85735  eV     1   --> A_1  D_1  S_1  
     e( 17 - 17) =     13.00523  eV     1   --> B_1  D_3  S_3  
     e( 18 - 18) =     14.11087  eV     1   --> B_2  D_4  S_4  
     e( 19 - 19) =     14.61913  eV     1   --> A_2  D_2  S_2  
     e( 20 - 20) =     14.76210  eV     1   --> A_1  D_1  S_1  

 **************************************************************************

 **************************************************************************

                    xk=(   0.61667,   0.08660,   0.00000  )

     Band symmetry, C_2v (mm2)  point group:

     e(  1 -  1) =    -15.79431  eV     1   --> B_2  D_4  S_4  
     e(  2 -  2) =    -14.88116  eV     1   --> A_1  D_1  S_1  
     e(  3 -  3) =    -11.82630  eV     1   --> A_1  D_1  S_1  
     e(  4 -  4) =     -3.54111  eV     1   --> A_2  D_2  S_2  
     e(  5 -  5) =     -1.25943  eV     1   --> B_1  D_3  S_3  
     e(  6 -  6) =      8.71833  eV     1   --> B_1  D_3  S_3  
     e(  7 -  7) =      9.38411  eV     1   --> A_1  D_1  S_1  
     e(  8 -  8) =      9.82800  eV     1   --> B_2  D_4  S_4  
     e(  9 -  9) =     10.11367  eV     1   --> A_1  D_1  S_1  
     e( 10 - 10) =     11.12245  eV     1   --> A_2  D_2  S_2  
     e( 11 - 11) =     11.40701  eV     1   --> B_2  D_4  S_4  
     e( 12 - 12) =     11.42537  eV     1   --> A_1  D_1  S_1  
     e( 13 - 13) =     11.62998  eV     1   --> B_1  D_3  S_3  
     e( 14 - 14) =     12.31997  eV     1   --> A_2  D_2  S_2  
     e( 15 - 15) =     12.53685  eV     1   --> B_2  D_4  S_4  
     e( 16 - 16) =     12.68214  eV     1   --> A_1  D_1  S_1  
     e( 17 - 17) =     12.85948  eV     1   --> B_1  D_3  S_3  
     e( 18 - 18) =     14.08334  eV     1   --> B_2  D_4  S_4  
     e( 19 - 19) =     14.42283  eV     1   --> A_2  D_2  S_2  
     e( 20 - 20) =     14.68515  eV     1   --> A_1  D_1  S_1  

 **************************************************************************

 **************************************************************************

                    xk=(   0.60833,   0.10104,   0.00000  )

     Band symmetry, C_2v (mm2)  point group:

     e(  1 -  1) =    -15.90752  eV     1   --> B_2  D_4  S_4  
     e(  2 -  2) =    -14.96131  eV     1   --> A_1  D_1  S_1  
     e(  3 -  3) =    -11.52449  eV     1   --> A_1  D_1  S_1  
     e(  4 -  4) =     -3.70112  eV     1   --> A_2  D_2  S_2  
     e(  5 -  5) =     -1.14268  eV     1   --> B_1  D_3  S_3  
     e(  6 -  6) =      8.85814  eV     1   --> B_1  D_3  S_3  
     e(  7 -  7) =      8.95184  eV     1   --> A_1  D_1  S_1  
     e(  8 -  8) =      9.69745  eV     1   --> B_2  D_4  S_4  
     e(  9 -  9) =      9.94962  eV     1   --> A_1  D_1  S_1  
     e( 10 - 10) =     10.93894  eV     1   --> A_2  D_2  S_2  
     e( 11 - 11) =     11.22609  eV     1   --> B_2  D_4  S_4  
     e( 12 - 12) =     11.24220  eV     1   --> A_1  D_1  S_1  
     e( 13 - 13) =     11.47578  eV     1   --> B_1  D_3  S_3  
     e( 14 - 14) =     12.13579  eV     1   --> A_2  D_2  S_2  
     e( 15 - 15) =     12.39759  eV     1   --> B_2  D_4  S_4  
     e( 16 - 16) =     12.51574  eV     1   --> A_1  D_1  S_1  
     e( 17 - 17) =     12.72944  eV     1   --> B_1  D_3  S_3  
     e( 18 - 18) =     14.05928  eV     1   --> B_2  D_4  S_4  
     e( 19 - 19) =     14.23998  eV     1   --> A_2  D_2  S_2  
     e( 20 - 20) =     14.56695  eV     1   --> A_1  D_1  S_1  

 **************************************************************************

[...]
     e( 13 - 13) =      7.64032  eV     1   --> B_2  D_4  S_4  
     e( 14 - 14) =      7.74254  eV     1   --> B_1  D_3  S_3  
     e( 15 - 15) =      8.53084  eV     1   --> B_2  D_4  S_4  
     e( 16 - 16) =      9.33322  eV     1   --> A_1  D_1  S_1  
     e( 17 - 17) =     11.11922  eV     1   --> A_1  D_1  S_1  
     e( 18 - 18) =     12.23844  eV     1   --> B_2  D_4  S_4  
     e( 19 - 19) =     13.28184  eV     1   --> A_1  D_1  S_1  
     e( 20 - 20) =     16.65659  eV     1   --> B_2  D_4  S_4  

 **************************************************************************

 **************************************************************************

                    xk=(   0.12500,   0.07217,   0.00000  )

     Band symmetry, C_2v (mm2)  point group:

     e(  1 -  1) =    -21.50190  eV     1   --> A_1  D_1  S_1  
     e(  2 -  2) =     -9.54310  eV     1   --> B_2  D_4  S_4  
     e(  3 -  3) =     -6.79502  eV     1   --> A_1  D_1  S_1  
     e(  4 -  4) =     -6.12347  eV     1   --> B_1  D_3  S_3  
     e(  5 -  5) =      1.40158  eV     1   --> A_1  D_1  S_1  
     e(  6 -  6) =      2.15586  eV     1   --> B_2  D_4  S_4  
     e(  7 -  7) =      2.36463  eV     1   --> A_1  D_1  S_1  
     e(  8 -  8) =      3.31967  eV     1   --> B_2  D_4  S_4  
     e(  9 -  9) =      3.79051  eV     1   --> A_1  D_1  S_1  
     e( 10 - 10) =      5.45907  eV     1   --> B_2  D_4  S_4  
     e( 11 - 11) =      5.97188  eV     1   --> A_1  D_1  S_1  
     e( 12 - 12) =      6.18043  eV     1   --> A_1  D_1  S_1  
     e( 13 - 13) =      7.45343  eV     1   --> B_1  D_3  S_3  
     e( 14 - 14) =      7.87735  eV     1   --> B_2  D_4  S_4  
     e( 15 - 15) =      8.42702  eV     1   --> B_2  D_4  S_4  
     e( 16 - 16) =      9.22698  eV     1   --> A_1  D_1  S_1  
     e( 17 - 17) =     10.96930  eV     1   --> A_1  D_1  S_1  
     e( 18 - 18) =     12.13922  eV     1   --> B_2  D_4  S_4  
     e( 19 - 19) =     13.17637  eV     1   --> A_1  D_1  S_1  
     e( 20 - 20) =     16.57403  eV     1   --> B_2  D_4  S_4  

 **************************************************************************

 **************************************************************************

                    xk=(   0.11250,   0.06495,   0.00000  )

     Band symmetry, C_2v (mm2)  point group:

     e(  1 -  1) =    -21.57186  eV     1   --> A_1  D_1  S_1  
     e(  2 -  2) =     -9.62650  eV     1   --> B_2  D_4  S_4  
     e(  3 -  3) =     -6.55505  eV     1   --> A_1  D_1  S_1  
     e(  4 -  4) =     -6.00513  eV     1   --> B_1  D_3  S_3  
     e(  5 -  5) =      1.30603  eV     1   --> A_1  D_1  S_1  
     e(  6 -  6) =      2.05907  eV     1   --> B_2  D_4  S_4  
     e(  7 -  7) =      2.26677  eV     1   --> A_1  D_1  S_1  
     e(  8 -  8) =      3.22288  eV     1   --> B_2  D_4  S_4  
     e(  9 -  9) =      3.69372  eV     1   --> A_1  D_1  S_1  
     e( 10 - 10) =      5.36328  eV     1   --> B_2  D_4  S_4  
     e( 11 - 11) =      5.93528  eV     1   --> A_1  D_1  S_1  
     e( 12 - 12) =      6.12139  eV     1   --> A_1  D_1  S_1  
     e( 13 - 13) =      7.18503  eV     1   --> B_1  D_3  S_3  
     e( 14 - 14) =      8.09654  eV     1   --> B_2  D_4  S_4  
     e( 15 - 15) =      8.33353  eV     1   --> B_2  D_4  S_4  
     e( 16 - 16) =      9.13066  eV     1   --> A_1  D_1  S_1  
     e( 17 - 17) =     10.83379  eV     1   --> A_1  D_1  S_1  
     e( 18 - 18) =     12.04911  eV     1   --> B_2  D_4  S_4  
     e( 19 - 19) =     13.08081  eV     1   --> A_1  D_1  S_1  
     e( 20 - 20) =     16.49716  eV     1   --> B_2  D_4  S_4  

 **************************************************************************

 **************************************************************************

                    xk=(   0.10000,   0.05774,   0.00000  )

     Band symmetry, C_2v (mm2)  point group:

     e(  1 -  1) =    -21.63449  eV     1   --> A_1  D_1  S_1  
     e(  2 -  2) =     -9.70125  eV     1   --> B_2  D_4  S_4  
     e(  3 -  3) =     -6.33281  eV     1   --> A_1  D_1  S_1  
     e(  4 -  4) =     -5.89386  eV     1   --> B_1  D_3  S_3  
     e(  5 -  5) =      1.22053  eV     1   --> A_1  D_1  S_1  
     e(  6 -  6) =      1.97244  eV     1   --> B_2  D_4  S_4  
     e(  7 -  7) =      2.17922  eV     1   --> A_1  D_1  S_1  
     e(  8 -  8) =      3.13625  eV     1   --> B_2  D_4  S_4  
     e(  9 -  9) =      3.60710  eV     1   --> A_1  D_1  S_1  
     e( 10 - 10) =      5.27748  eV     1   --> B_2  D_4  S_4  
     e( 11 - 11) =      5.88173  eV     1   --> A_1  D_1  S_1  
     e( 12 - 12) =      6.08393  eV     1   --> A_1  D_1  S_1  
     e( 13 - 13) =      6.93895  eV     1   --> B_1  D_3  S_3  
     e( 14 - 14) =      8.24250  eV     1   --> B_2  D_4  S_4  
     e( 15 - 15) =      8.30446  eV     1   --> B_2  D_4  S_4  
     e( 16 - 16) =      9.04431  eV     1   --> A_1  D_1  S_1  
     e( 17 - 17) =     10.71341  eV     1   --> A_1  D_1  S_1  
     e( 18 - 18) =     11.96824  eV     1   --> B_2  D_4  S_4  
     e( 19 - 19) =     12.99520  eV     1   --> A_1  D_1  S_1  
     e( 20 - 20) =     16.42684  eV     1   --> B_2  D_4  S_4  

 **************************************************************************

 **************************************************************************

                    xk=(   0.08750,   0.05052,   0.00000  )

     Band symmetry, C_2v (mm2)  point group:

     e(  1 -  1) =    -21.68979  eV     1   --> A_1  D_1  S_1  
     e(  2 -  2) =     -9.76732  eV     1   --> B_2  D_4  S_4  
     e(  3 -  3) =     -6.13030  eV     1   --> A_1  D_1  S_1  
     e(  4 -  4) =     -5.79107  eV     1   --> B_1  D_3  S_3  
     e(  5 -  5) =      1.14509  eV     1   --> A_1  D_1  S_1  
     e(  6 -  6) =      1.89597  eV     1   --> B_2  D_4  S_4  
     e(  7 -  7) =      2.10196  eV     1   --> A_1  D_1  S_1  
     e(  8 -  8) =      3.05979  eV     1   --> B_2  D_4  S_4  
     e(  9 -  9) =      3.53067  eV     1   --> A_1  D_1  S_1  
     e( 10 - 10) =      5.20173  eV     1   --> B_2  D_4  S_4  
     e( 11 - 11) =      5.82276  eV     1   --> A_1  D_1  S_1  
     e( 12 - 12) =      6.05738  eV     1   --> A_1  D_1  S_1  
     e( 13 - 13) =      6.71679  eV     1   --> B_1  D_3  S_3  
     e( 14 - 14) =      8.17238  eV     1   --> B_2  D_4  S_4  
     e( 15 - 15) =      8.48131  eV     1   --> B_2  D_4  S_4  
     e( 16 - 16) =      8.96797  eV     1   --> A_1  D_1  S_1  
     e( 17 - 17) =     10.60848  eV     1   --> A_1  D_1  S_1  
     e( 18 - 18) =     11.89668  eV     1   --> B_2  D_4  S_4  
     e( 19 - 19) =     12.91956  eV     1   --> A_1  D_1  S_1  
     e( 20 - 20) =     16.36370  eV     1   --> B_2  D_4  S_4  

 **************************************************************************

 **************************************************************************

                    xk=(   0.07500,   0.04330,   0.00000  )

     Band symmetry, C_2v (mm2)  point group:

     e(  1 -  1) =    -21.73775  eV     1   --> A_1  D_1  S_1  
     e(  2 -  2) =     -9.82465  eV     1   --> B_2  D_4  S_4  
     e(  3 -  3) =     -5.94955  eV     1   --> A_1  D_1  S_1  
     e(  4 -  4) =     -5.69821  eV     1   --> B_1  D_3  S_3  
     e(  5 -  5) =      1.07972  eV     1   --> A_1  D_1  S_1  
     e(  6 -  6) =      1.82969  eV     1   --> B_2  D_4  S_4  
     e(  7 -  7) =      2.03500  eV     1   --> A_1  D_1  S_1  
     e(  8 -  8) =      2.99350  eV     1   --> B_2  D_4  S_4  
     e(  9 -  9) =      3.46443  eV     1   --> A_1  D_1  S_1  
     e( 10 - 10) =      5.13604  eV     1   --> B_2  D_4  S_4  
     e( 11 - 11) =      5.76658  eV     1   --> A_1  D_1  S_1  
     e( 12 - 12) =      6.03475  eV     1   --> A_1  D_1  S_1  
     e( 13 - 13) =      6.52017  eV     1   --> B_1  D_3  S_3  
     e( 14 - 14) =      8.10819  eV     1   --> B_2  D_4  S_4  
     e( 15 - 15) =      8.64090  eV     1   --> B_2  D_4  S_4  
     e( 16 - 16) =      8.90168  eV     1   --> A_1  D_1  S_1  
     e( 17 - 17) =     10.51904  eV     1   --> A_1  D_1  S_1  
     e( 18 - 18) =     11.83452  eV     1   --> B_2  D_4  S_4  
     e( 19 - 19) =     12.85393  eV     1   --> A_1  D_1  S_1  
     e( 20 - 20) =     16.30821  eV     1   --> B_2  D_4  S_4  

 **************************************************************************

 **************************************************************************

                    xk=(   0.06250,   0.03608,   0.00000  )

     Band symmetry, C_2v (mm2)  point group:

     e(  1 -  1) =    -21.77835  eV     1   --> A_1  D_1  S_1  
     e(  2 -  2) =     -9.87322  eV     1   --> B_2  D_4  S_4  
     e(  3 -  3) =     -5.79253  eV     1   --> A_1  D_1  S_1  
     e(  4 -  4) =     -5.61670  eV     1   --> B_1  D_3  S_3  
     e(  5 -  5) =      1.02440  eV     1   --> A_1  D_1  S_1  
     e(  6 -  6) =      1.77359  eV     1   --> B_2  D_4  S_4  
     e(  7 -  7) =      1.97835  eV     1   --> A_1  D_1  S_1  
     e(  8 -  8) =      2.93741  eV     1   --> B_2  D_4  S_4  
     e(  9 -  9) =      3.40839  eV     1   --> A_1  D_1  S_1  
     e( 10 - 10) =      5.08044  eV     1   --> B_2  D_4  S_4  
     e( 11 - 11) =      5.71694  eV     1   --> A_1  D_1  S_1  
     e( 12 - 12) =      6.01377  eV     1   --> A_1  D_1  S_1  
     e( 13 - 13) =      6.35063  eV     1   --> B_1  D_3  S_3  
     e( 14 - 14) =      8.05365  eV     1   --> B_2  D_4  S_4  
     e( 15 - 15) =      8.77835  eV     1   --> B_2  D_4  S_4  
     e( 16 - 16) =      8.84550  eV     1   --> A_1  D_1  S_1  
     e( 17 - 17) =     10.44479  eV     1   --> A_1  D_1  S_1  
     e( 18 - 18) =     11.78182  eV     1   --> B_2  D_4  S_4  
     e( 19 - 19) =     12.79833  eV     1   --> A_1  D_1  S_1  
     e( 20 - 20) =     16.26073  eV     1   --> B_2  D_4  S_4  

 **************************************************************************

 **************************************************************************

                    xk=(   0.05000,   0.02887,   0.00000  )

     Band symmetry, C_2v (mm2)  point group:

     e(  1 -  1) =    -21.81158  eV     1   --> A_1  D_1  S_1  
     e(  2 -  2) =     -9.91300  eV     1   --> B_2  D_4  S_4  
     e(  3 -  3) =     -5.66110  eV     1   --> A_1  D_1  S_1  
     e(  4 -  4) =     -5.54786  eV     1   --> B_1  D_3  S_3  
     e(  5 -  5) =      0.97914  eV     1   --> A_1  D_1  S_1  
     e(  6 -  6) =      1.72769  eV     1   --> B_2  D_4  S_4  
     e(  7 -  7) =      1.93200  eV     1   --> A_1  D_1  S_1  
     e(  8 -  8) =      2.89150  eV     1   --> B_2  D_4  S_4  
     e(  9 -  9) =      3.36254  eV     1   --> A_1  D_1  S_1  
     e( 10 - 10) =      5.03493  eV     1   --> B_2  D_4  S_4  
     e( 11 - 11) =      5.67543  eV     1   --> A_1  D_1  S_1  
     e( 12 - 12) =      5.99445  eV     1   --> A_1  D_1  S_1  
     e( 13 - 13) =      6.20963  eV     1   --> B_1  D_3  S_3  
     e( 14 - 14) =      8.00896  eV     1   --> B_2  D_4  S_4  
     e( 15 - 15) =      8.79946  eV     1   --> A_1  D_1  S_1  
     e( 16 - 16) =      8.89244  eV     1   --> B_2  D_4  S_4  
     e( 17 - 17) =     10.38525  eV     1   --> A_1  D_1  S_1  
     e( 18 - 18) =     11.73863  eV     1   --> B_2  D_4  S_4  
     e( 19 - 19) =     12.75280  eV     1   --> A_1  D_1  S_1  
     e( 20 - 20) =     16.22154  eV     1   --> B_2  D_4  S_4  

 **************************************************************************

 **************************************************************************

                    xk=(   0.03750,   0.02165,   0.00000  )

     Band symmetry, C_2v (mm2)  point group:

     e(  1 -  1) =    -21.83743  eV     1   --> A_1  D_1  S_1  
     e(  2 -  2) =     -9.94396  eV     1   --> B_2  D_4  S_4  
     e(  3 -  3) =     -5.55694  eV     1   --> A_1  D_1  S_1  
     e(  4 -  4) =     -5.49292  eV     1   --> B_1  D_3  S_3  
     e(  5 -  5) =      0.94395  eV     1   --> A_1  D_1  S_1  
     e(  6 -  6) =      1.69198  eV     1   --> B_2  D_4  S_4  
     e(  7 -  7) =      1.89595  eV     1   --> A_1  D_1  S_1  
     e(  8 -  8) =      2.85580  eV     1   --> B_2  D_4  S_4  
     e(  9 -  9) =      3.32688  eV     1   --> A_1  D_1  S_1  
     e( 10 - 10) =      4.99952  eV     1   --> B_2  D_4  S_4  
     e( 11 - 11) =      5.64278  eV     1   --> A_1  D_1  S_1  
     e( 12 - 12) =      5.97770  eV     1   --> A_1  D_1  S_1  
     e( 13 - 13) =      6.09847  eV     1   --> B_1  D_3  S_3  
     e( 14 - 14) =      7.97417  eV     1   --> B_2  D_4  S_4  
     e( 15 - 15) =      8.76362  eV     1   --> A_1  D_1  S_1  
     e( 16 - 16) =      8.98220  eV     1   --> B_2  D_4  S_4  
     e( 17 - 17) =     10.33983  eV     1   --> A_1  D_1  S_1  
     e( 18 - 18) =     11.70499  eV     1   --> B_2  D_4  S_4  
     e( 19 - 19) =     12.71735  eV     1   --> A_1  D_1  S_1  
     e( 20 - 20) =     16.19086  eV     1   --> B_2  D_4  S_4  

 **************************************************************************

 **************************************************************************

                    xk=(   0.02500,   0.01443,   0.00000  )

     Band symmetry, C_2v (mm2)  point group:

     e(  1 -  1) =    -21.85590  eV     1   --> A_1  D_1  S_1  
     e(  2 -  2) =     -9.96609  eV     1   --> B_2  D_4  S_4  
     e(  3 -  3) =     -5.48145  eV     1   --> A_1  D_1  S_1  
     e(  4 -  4) =     -5.45290  eV     1   --> B_1  D_3  S_3  
     e(  5 -  5) =      0.91881  eV     1   --> A_1  D_1  S_1  
     e(  6 -  6) =      1.66647  eV     1   --> B_2  D_4  S_4  
     e(  7 -  7) =      1.87020  eV     1   --> A_1  D_1  S_1  
     e(  8 -  8) =      2.83029  eV     1   --> B_2  D_4  S_4  
     e(  9 -  9) =      3.30141  eV     1   --> A_1  D_1  S_1  
     e( 10 - 10) =      4.97423  eV     1   --> B_2  D_4  S_4  
     e( 11 - 11) =      5.61932  eV     1   --> A_1  D_1  S_1  
     e( 12 - 12) =      5.96467  eV     1   --> A_1  D_1  S_1  
     e( 13 - 13) =      6.01824  eV     1   --> B_1  D_3  S_3  
     e( 14 - 14) =      7.94931  eV     1   --> B_2  D_4  S_4  
     e( 15 - 15) =      8.73799  eV     1   --> A_1  D_1  S_1  
     e( 16 - 16) =      9.04687  eV     1   --> B_2  D_4  S_4  
     e( 17 - 17) =     10.30792  eV     1   --> A_1  D_1  S_1  
     e( 18 - 18) =     11.68094  eV     1   --> B_2  D_4  S_4  
     e( 19 - 19) =     12.69201  eV     1   --> A_1  D_1  S_1  
     e( 20 - 20) =     16.16884  eV     1   --> B_2  D_4  S_4  

 **************************************************************************

 **************************************************************************

                    xk=(   0.01250,   0.00722,   0.00000  )

     Band symmetry, C_2v (mm2)  point group:

     e(  1 -  1) =    -21.86698  eV     1   --> A_1  D_1  S_1  
     e(  2 -  2) =     -9.97937  eV     1   --> B_2  D_4  S_4  
     e(  3 -  3) =     -5.43571  eV     1   --> A_1  D_1  S_1  
     e(  4 -  4) =     -5.42855  eV     1   --> B_1  D_3  S_3  
     e(  5 -  5) =      0.90372  eV     1   --> A_1  D_1  S_1  
     e(  6 -  6) =      1.65116  eV     1   --> B_2  D_4  S_4  
     e(  7 -  7) =      1.85475  eV     1   --> A_1  D_1  S_1  
     e(  8 -  8) =      2.81499  eV     1   --> B_2  D_4  S_4  
     e(  9 -  9) =      3.28612  eV     1   --> A_1  D_1  S_1  
     e( 10 - 10) =      4.95905  eV     1   --> B_2  D_4  S_4  
     e( 11 - 11) =      5.60520  eV     1   --> A_1  D_1  S_1  
     e( 12 - 12) =      5.95638  eV     1   --> A_1  D_1  S_1  
     e( 13 - 13) =      5.96976  eV     1   --> B_1  D_3  S_3  
     e( 14 - 14) =      7.93439  eV     1   --> B_2  D_4  S_4  
     e( 15 - 15) =      8.72261  eV     1   --> A_1  D_1  S_1  
     e( 16 - 16) =      9.08591  eV     1   --> B_2  D_4  S_4  
     e( 17 - 17) =     10.28900  eV     1   --> A_1  D_1  S_1  
     e( 18 - 18) =     11.66649  eV     1   --> B_2  D_4  S_4  
     e( 19 - 19) =     12.67681  eV     1   --> A_1  D_1  S_1  
     e( 20 - 20) =     16.15559  eV     1   --> B_2  D_4  S_4  

 **************************************************************************

 **************************************************************************

                    xk=(   0.00000,   0.00000,   0.00000  )

     point group D_6h(6/mmm)
     there are 12 classes
     the character table:

       E     2C6   2C3   C2    3C2'  3C2'' i     2S3   2S6   s_h   3s_d  3s_v 
A_1g   1.00  1.00  1.00  1.00  1.00  1.00  1.00  1.00  1.00  1.00  1.00  1.00
A_2g   1.00  1.00  1.00  1.00 -1.00 -1.00  1.00  1.00  1.00  1.00 -1.00 -1.00
B_1g   1.00 -1.00  1.00 -1.00  1.00 -1.00  1.00 -1.00  1.00 -1.00  1.00 -1.00
B_2g   1.00 -1.00  1.00 -1.00 -1.00  1.00  1.00 -1.00  1.00 -1.00 -1.00  1.00
E_1g   2.00  1.00 -1.00 -2.00  0.00  0.00  2.00  1.00 -1.00 -2.00  0.00  0.00
E_2g   2.00 -1.00 -1.00  2.00  0.00  0.00  2.00 -1.00 -1.00  2.00  0.00  0.00
A_1u   1.00  1.00  1.00  1.00  1.00  1.00 -1.00 -1.00 -1.00 -1.00 -1.00 -1.00
A_2u   1.00  1.00  1.00  1.00 -1.00 -1.00 -1.00 -1.00 -1.00 -1.00  1.00  1.00
B_1u   1.00 -1.00  1.00 -1.00  1.00 -1.00 -1.00  1.00 -1.00  1.00 -1.00  1.00
B_2u   1.00 -1.00  1.00 -1.00 -1.00  1.00 -1.00  1.00 -1.00  1.00  1.00 -1.00
E_1u   2.00  1.00 -1.00 -2.00  0.00  0.00 -2.00 -1.00  1.00  2.00  0.00  0.00
E_2u   2.00 -1.00 -1.00  2.00  0.00  0.00 -2.00  1.00  1.00 -2.00  0.00  0.00

     the symmetry operations in each class and the name of the first element:

     E        1
                                                                 
     2C6      5    6
                                                                 
     2C3      7    8
                                                                 
     C2       2
                                                                 
     3C2'     4   12   11
                                                                 
     3C2''    3    9   10
                                                                 
     i       13
                                                                 
     2S3     17   18
                                                                 
     2S6     19   20
                                                                 
     s_h     14
                                                                 
     3s_d    16   24   23
                                                                 
     3s_v    15   21   22
                                                                 

     Band symmetry, D_6h(6/mmm) point group:

     e(  1 -  1) =    -21.87068  eV     1   --> A_1g           
     e(  2 -  2) =     -9.98380  eV     1   --> A_2u           
     e(  3 -  4) =     -5.42039  eV     2   --> E_2g           
     e(  5 -  5) =      0.89870  eV     1   --> A_1g           
     e(  6 -  6) =      1.64606  eV     1   --> A_2u           
     e(  7 -  7) =      1.84960  eV     1   --> A_1g           
     e(  8 -  8) =      2.80988  eV     1   --> A_2u           
     e(  9 -  9) =      3.28103  eV     1   --> A_1g           
     e( 10 - 10) =      4.95399  eV     1   --> A_2u           
     e( 11 - 11) =      5.60048  eV     1   --> A_1g           
     e( 12 - 13) =      5.95354  eV     2   --> E_1u           
     e( 14 - 14) =      7.92941  eV     1   --> A_2u           
     e( 15 - 15) =      8.71748  eV     1   --> A_1g           
     e( 16 - 16) =      9.09896  eV     1   --> B_1g           
     e( 17 - 17) =     10.28273  eV     1   --> B_2u           
     e( 18 - 18) =     11.66168  eV     1   --> A_2u           
     e( 19 - 19) =     12.67174  eV     1   --> A_1g           
     e( 20 - 20) =     16.15116  eV     1   --> A_2u           

 **************************************************************************
 
     BANDS        :     21.68s CPU     22.57s WALL

 
   This run was terminated on:  11:54:48  18Feb2022            

=------------------------------------------------------------------------------=
   JOB DONE.
=------------------------------------------------------------------------------=
