
     Program DOS v.6.7MaX starts on 18Feb2022 at 11:54:48 

     This program is part of the open-source Quantum ESPRESSO suite
     for quantum simulation of materials; please cite
         "P. Giannozzi et al., J. Phys.:Condens. Matter 21 395502 (2009);
         "P. Giannozzi et al., J. Phys.:Condens. Matter 29 465901 (2017);
          URL http://www.quantum-espresso.org", 
     in publications or presentations arising from this work. More details at
     http://www.quantum-espresso.org/quote

     Parallel version (MPI), running on    20 processors

     MPI processes distributed on     1 nodes
     R & G space division:  proc/nbgrp/npool/nimage =      20

     Reading xml data from directory:

     ./2Dgraphene.save/
     Message from routine qexsd_readschema :
     input info not found or not readable in xml file
     file C.pbe-rrkjus.UPF: wavefunction(s)  2S 2P renormalized

     IMPORTANT: XC functional enforced from input :
     Exchange-correlation= PBE
                           (   1   4   3   4   0   0   0)
     Any further DFT definition will be discarded
     Please, verify this is what you really want

 
     Parallelization info
     --------------------
     sticks:   dense  smooth     PW     G-vecs:    dense   smooth      PW
     Min          20      20      8                 2643     2643     660
     Max          23      23      9                 2654     2654     683
     Sum         409     409    163                52949    52949   13511
 

     negative rho (up, down):  6.981E-05 0.000E+00

     Gaussian broadening (read from file): ngauss,degauss=   1    0.020000

 
     DOS          :      0.55s CPU      0.66s WALL

 
   This run was terminated on:  11:54:49  18Feb2022            

=------------------------------------------------------------------------------=
   JOB DONE.
=------------------------------------------------------------------------------=
