
     Program PWSCF v.6.7MaX starts on 23Feb2022 at 11:46:57 

     This program is part of the open-source Quantum ESPRESSO suite
     for quantum simulation of materials; please cite
         "P. Giannozzi et al., J. Phys.:Condens. Matter 21 395502 (2009);
         "P. Giannozzi et al., J. Phys.:Condens. Matter 29 465901 (2017);
          URL http://www.quantum-espresso.org", 
     in publications or presentations arising from this work. More details at
     http://www.quantum-espresso.org/quote

     Parallel version (MPI), running on    20 processors

     MPI processes distributed on     1 nodes
     R & G space division:  proc/nbgrp/npool/nimage =      20
     Waiting for input...
     Reading input from standard input

     Current dimensions of program PWSCF are:
     Max number of different atomic species (ntypx) = 10
     Max number of k-points (npk) =  40000
     Max angular momentum in pseudopotentials (lmaxx) =  3
     file Mo.pbe-spn-kjpaw_psl.0.2.UPF: wavefunction(s)  4D renormalized
     file S.pbe-n-kjpaw_psl.0.1.UPF: wavefunction(s)  3P renormalized

     Subspace diagonalization in iterative solution of the eigenvalue problem:
     one sub-group per band group will be used
     scalapack distributed-memory algorithm (size of sub-group:  4*  4 procs)

     Message from routine setup:
     using ibrav=0 with symmetry is DISCOURAGED, use correct ibrav instead
 
     Parallelization info
     --------------------
     sticks:   dense  smooth     PW     G-vecs:    dense   smooth      PW
     Min          63      24      7                 6341     1592     265
     Max          64      25      8                 6354     1611     280
     Sum        1261     499    151               126991    32155    5459
 


     bravais-lattice index     =            0
     lattice parameter (alat)  =       5.9830  a.u.
     unit-cell volume          =     671.9051 (a.u.)^3
     number of atoms/cell      =            3
     number of atomic types    =            2
     number of electrons       =        26.00
     number of Kohn-Sham states=           13
     kinetic-energy cutoff     =      50.0000  Ry
     charge density cutoff     =     500.0000  Ry
     scf convergence threshold =      1.0E-08
     mixing beta               =       0.5000
     number of iterations used =            8  local-TF  mixing
     Exchange-correlation= SLA  PW   PBX  PBC
                           (   1   4   3   4   0   0   0)

     celldm(1)=   5.983000  celldm(2)=   0.000000  celldm(3)=   0.000000
     celldm(4)=   0.000000  celldm(5)=   0.000000  celldm(6)=   0.000000

     crystal axes: (cart. coord. in units of alat)
               a(1) = (   1.008068   0.000000   0.000000 )  
               a(2) = (  -0.504034   0.872904   0.000000 )  
               a(3) = (   0.000000   0.000000   3.565287 )  

     reciprocal axes: (cart. coord. in units 2 pi/alat)
               b(1) = (  0.991997  0.572800  0.000000 )  
               b(2) = (  0.000000  1.145601  0.000000 )  
               b(3) = (  0.000000  0.000000  0.280482 )  


     PseudoPot. # 1 for Mo read from file:
     ../Pseudo/Mo.pbe-spn-kjpaw_psl.0.2.UPF
     MD5 check sum: 99c4efbabb9e14294ed14bd31c5e2f8a
     Pseudo is Projector augmented-wave + core cor, Zval = 14.0
     Generated using "atomic" code by A. Dal Corso  v.5.0.2 svn rev. 9415
     Shape of augmentation charge: PSQ
     Using radial grid of 1229 points,  6 beta functions with: 
                l(1) =   0
                l(2) =   0
                l(3) =   1
                l(4) =   1
                l(5) =   2
                l(6) =   2
     Q(r) pseudized with 0 coefficients 


     PseudoPot. # 2 for S  read from file:
     ../Pseudo/S.pbe-n-kjpaw_psl.0.1.UPF
     MD5 check sum: 5138ed5699b2c5d2fdac7c35a9631f5b
     Pseudo is Projector augmented-wave + core cor, Zval =  6.0
     Generated using "atomic" code by A. Dal Corso  v.5.0.2 svn rev. 9415
     Shape of augmentation charge: PSQ
     Using radial grid of 1151 points,  4 beta functions with: 
                l(1) =   0
                l(2) =   0
                l(3) =   1
                l(4) =   1
     Q(r) pseudized with 0 coefficients 


     atomic species   valence    mass     pseudopotential
        Mo            14.00    95.94000     Mo( 1.00)
        S              6.00    32.06500     S ( 1.00)

      4 Sym. Ops. (no inversion) found



   Cartesian axes

     site n.     atom                  positions (alat units)
         1           Mo  tau(   1) = (   0.0000000   0.0030498   0.0000000  )
         2           S   tau(   2) = (   0.0000000   0.5850225   0.4949137  )
         3           S   tau(   3) = (   0.0000000   0.5850225  -0.4949137  )

     number of k points=    91
                       cart. coord. in units 2pi/alat
        k(    1) = (   0.0000000   0.0000000   0.0000000), wk =   0.0061728
        k(    2) = (   0.0000000   0.0636445   0.0000000), wk =   0.0123457
        k(    3) = (   0.0000000   0.1272890   0.0000000), wk =   0.0123457
        k(    4) = (   0.0000000   0.1909335   0.0000000), wk =   0.0123457
        k(    5) = (   0.0000000   0.2545780   0.0000000), wk =   0.0123457
        k(    6) = (   0.0000000   0.3182225   0.0000000), wk =   0.0123457
        k(    7) = (   0.0000000   0.3818669   0.0000000), wk =   0.0123457
        k(    8) = (   0.0000000   0.4455114   0.0000000), wk =   0.0123457
        k(    9) = (   0.0000000   0.5091559   0.0000000), wk =   0.0123457
        k(   10) = (   0.0000000  -0.5728004   0.0000000), wk =   0.0061728
        k(   11) = (   0.0551109   0.0318222   0.0000000), wk =   0.0246914
        k(   12) = (   0.0551109   0.0954667   0.0000000), wk =   0.0246914
        k(   13) = (   0.0551109   0.1591112   0.0000000), wk =   0.0246914
        k(   14) = (   0.0551109   0.2227557   0.0000000), wk =   0.0246914
        k(   15) = (   0.0551109   0.2864002   0.0000000), wk =   0.0246914
        k(   16) = (   0.0551109   0.3500447   0.0000000), wk =   0.0246914
        k(   17) = (   0.0551109   0.4136892   0.0000000), wk =   0.0246914
        k(   18) = (   0.0551109   0.4773337   0.0000000), wk =   0.0246914
        k(   19) = (   0.0551109   0.5409782   0.0000000), wk =   0.0246914
        k(   20) = (   0.1102219   0.0636445   0.0000000), wk =   0.0246914
        k(   21) = (   0.1102219   0.1272890   0.0000000), wk =   0.0246914
        k(   22) = (   0.1102219   0.1909335   0.0000000), wk =   0.0246914
        k(   23) = (   0.1102219   0.2545780   0.0000000), wk =   0.0246914
        k(   24) = (   0.1102219   0.3182225   0.0000000), wk =   0.0246914
        k(   25) = (   0.1102219   0.3818669   0.0000000), wk =   0.0246914
        k(   26) = (   0.1102219   0.4455114   0.0000000), wk =   0.0246914
        k(   27) = (   0.1102219   0.5091559   0.0000000), wk =   0.0246914
        k(   28) = (   0.1102219   0.5728004   0.0000000), wk =   0.0123457
        k(   29) = (   0.1102219   0.0000000   0.0000000), wk =   0.0123457
        k(   30) = (   0.1653328   0.0954667   0.0000000), wk =   0.0246914
        k(   31) = (   0.1653328   0.1591112   0.0000000), wk =   0.0246914
        k(   32) = (   0.1653328   0.2227557   0.0000000), wk =   0.0246914
        k(   33) = (   0.1653328   0.2864002   0.0000000), wk =   0.0246914
        k(   34) = (   0.1653328   0.3500447   0.0000000), wk =   0.0246914
        k(   35) = (   0.1653328   0.4136892   0.0000000), wk =   0.0246914
        k(   36) = (   0.1653328   0.4773337   0.0000000), wk =   0.0246914
        k(   37) = (   0.1653328   0.5409782   0.0000000), wk =   0.0246914
        k(   38) = (   0.1653328  -0.0318222   0.0000000), wk =   0.0246914
        k(   39) = (   0.2204437   0.1272890   0.0000000), wk =   0.0246914
        k(   40) = (   0.2204437   0.1909335   0.0000000), wk =   0.0246914
        k(   41) = (   0.2204437   0.2545780   0.0000000), wk =   0.0246914
        k(   42) = (   0.2204437   0.3182225   0.0000000), wk =   0.0246914
        k(   43) = (   0.2204437   0.3818669   0.0000000), wk =   0.0246914
        k(   44) = (   0.2204437   0.4455114   0.0000000), wk =   0.0246914
        k(   45) = (   0.2204437   0.5091559   0.0000000), wk =   0.0246914
        k(   46) = (   0.2204437   0.5728004   0.0000000), wk =   0.0123457
        k(   47) = (   0.2204437  -0.0636445   0.0000000), wk =   0.0246914
        k(   48) = (   0.2204437   0.0000000   0.0000000), wk =   0.0123457
        k(   49) = (   0.2755547   0.1591112   0.0000000), wk =   0.0246914
        k(   50) = (   0.2755547   0.2227557   0.0000000), wk =   0.0246914
        k(   51) = (   0.2755547   0.2864002   0.0000000), wk =   0.0246914
        k(   52) = (   0.2755547   0.3500447   0.0000000), wk =   0.0246914
        k(   53) = (   0.2755547   0.4136892   0.0000000), wk =   0.0246914
        k(   54) = (   0.2755547   0.4773337   0.0000000), wk =   0.0246914
        k(   55) = (   0.2755547   0.5409782   0.0000000), wk =   0.0246914
        k(   56) = (   0.2755547  -0.0954667   0.0000000), wk =   0.0246914
        k(   57) = (   0.2755547  -0.0318222   0.0000000), wk =   0.0246914
        k(   58) = (   0.3306656   0.1909335   0.0000000), wk =   0.0246914
        k(   59) = (   0.3306656   0.2545780   0.0000000), wk =   0.0246914
        k(   60) = (   0.3306656   0.3182225   0.0000000), wk =   0.0246914
        k(   61) = (   0.3306656   0.3818669   0.0000000), wk =   0.0246914
        k(   62) = (   0.3306656   0.4455114   0.0000000), wk =   0.0246914
        k(   63) = (   0.3306656   0.5091559   0.0000000), wk =   0.0246914
        k(   64) = (   0.3306656   0.5728004   0.0000000), wk =   0.0123457
        k(   65) = (   0.3306656  -0.1272890   0.0000000), wk =   0.0246914
        k(   66) = (   0.3306656  -0.0636445   0.0000000), wk =   0.0246914
        k(   67) = (   0.3306656   0.0000000   0.0000000), wk =   0.0123457
        k(   68) = (   0.3857766   0.2227557   0.0000000), wk =   0.0246914
        k(   69) = (   0.3857766   0.2864002   0.0000000), wk =   0.0246914
        k(   70) = (   0.3857766   0.3500447   0.0000000), wk =   0.0246914
        k(   71) = (   0.3857766   0.4136892   0.0000000), wk =   0.0246914
        k(   72) = (   0.3857766   0.4773337   0.0000000), wk =   0.0246914
        k(   73) = (   0.3857766   0.5409782   0.0000000), wk =   0.0246914
        k(   74) = (   0.3857766  -0.1591112   0.0000000), wk =   0.0246914
        k(   75) = (   0.3857766  -0.0954667   0.0000000), wk =   0.0246914
        k(   76) = (   0.3857766  -0.0318222   0.0000000), wk =   0.0246914
        k(   77) = (   0.4408875   0.2545780   0.0000000), wk =   0.0246914
        k(   78) = (   0.4408875   0.3182225   0.0000000), wk =   0.0246914
        k(   79) = (   0.4408875   0.3818669   0.0000000), wk =   0.0246914
        k(   80) = (   0.4408875   0.4455114   0.0000000), wk =   0.0246914
        k(   81) = (   0.4408875   0.5091559   0.0000000), wk =   0.0246914
        k(   82) = (   0.4408875   0.5728004   0.0000000), wk =   0.0123457
        k(   83) = (   0.4408875  -0.1909335   0.0000000), wk =   0.0246914
        k(   84) = (   0.4408875  -0.1272890   0.0000000), wk =   0.0246914
        k(   85) = (   0.4408875  -0.0636445   0.0000000), wk =   0.0246914
        k(   86) = (   0.4408875   0.0000000   0.0000000), wk =   0.0123457
        k(   87) = (  -0.4959984  -0.2864002   0.0000000), wk =   0.0123457
        k(   88) = (  -0.4959984  -0.2227557   0.0000000), wk =   0.0246914
        k(   89) = (  -0.4959984  -0.1591112   0.0000000), wk =   0.0246914
        k(   90) = (  -0.4959984  -0.0954667   0.0000000), wk =   0.0246914
        k(   91) = (  -0.4959984  -0.0318222   0.0000000), wk =   0.0246914

     Dense  grid:   126991 G-vectors     FFT dimensions: (  45,  45, 160)

     Smooth grid:    32155 G-vectors     FFT dimensions: (  27,  27, 100)

     Estimated max dynamical RAM per process >      30.73 MB

     Estimated total dynamical RAM >     614.64 MB

     Check: negative core charge=   -0.000001

     Initial potential from superposition of free atoms

     starting charge   25.99864, renormalised to   26.00000
     Starting wfcs are   21 randomized atomic wfcs
     Checking if some PAW data can be deallocated... 

     total cpu time spent up to now is        1.9 secs

     Self-consistent Calculation

     iteration #  1     ecut=    50.00 Ry     beta= 0.50
     Davidson diagonalization with overlap
     ethr =  1.00E-02,  avg # of iterations =  2.0

     total cpu time spent up to now is        4.0 secs

     total energy              =    -496.64638686 Ry
     estimated scf accuracy    <       0.51215276 Ry

     iteration #  2     ecut=    50.00 Ry     beta= 0.50
     Davidson diagonalization with overlap
     ethr =  1.97E-03,  avg # of iterations =  1.9

     total cpu time spent up to now is        6.0 secs

     total energy              =    -496.58641884 Ry
     estimated scf accuracy    <       0.18559420 Ry

     iteration #  3     ecut=    50.00 Ry     beta= 0.50
     Davidson diagonalization with overlap
     ethr =  7.14E-04,  avg # of iterations =  5.6

     total cpu time spent up to now is        9.8 secs

     total energy              =    -496.72246055 Ry
     estimated scf accuracy    <       0.46272028 Ry

     iteration #  4     ecut=    50.00 Ry     beta= 0.50
     Davidson diagonalization with overlap
     ethr =  7.14E-04,  avg # of iterations =  1.0

     negative rho (up, down):  1.987E-07 0.000E+00

     total cpu time spent up to now is       11.5 secs

     total energy              =    -496.79415066 Ry
     estimated scf accuracy    <       0.35663602 Ry

     iteration #  5     ecut=    50.00 Ry     beta= 0.50
     Davidson diagonalization with overlap
     ethr =  7.14E-04,  avg # of iterations =  1.5

     total cpu time spent up to now is       13.3 secs

     total energy              =    -496.70787118 Ry
     estimated scf accuracy    <       0.60444345 Ry

     iteration #  6     ecut=    50.00 Ry     beta= 0.50
     Davidson diagonalization with overlap
     ethr =  7.14E-04,  avg # of iterations =  1.1

     total cpu time spent up to now is       15.0 secs

     total energy              =    -496.67649437 Ry
     estimated scf accuracy    <       0.39027355 Ry

     iteration #  7     ecut=    50.00 Ry     beta= 0.50
     Davidson diagonalization with overlap
     ethr =  7.14E-04,  avg # of iterations =  2.5

     total cpu time spent up to now is       17.2 secs

     total energy              =    -496.65304774 Ry
     estimated scf accuracy    <       0.13830937 Ry

     iteration #  8     ecut=    50.00 Ry     beta= 0.50
     Davidson diagonalization with overlap
     ethr =  5.32E-04,  avg # of iterations =  3.8

     negative rho (up, down):  8.603E-07 0.000E+00

     total cpu time spent up to now is       20.0 secs

     total energy              =    -496.68164824 Ry
     estimated scf accuracy    <       0.01381111 Ry

     iteration #  9     ecut=    50.00 Ry     beta= 0.50
     Davidson diagonalization with overlap
     ethr =  5.31E-05,  avg # of iterations =  6.5

     negative rho (up, down):  1.997E-06 0.000E+00

     total cpu time spent up to now is       24.3 secs

     total energy              =    -496.70724571 Ry
     estimated scf accuracy    <       0.12771996 Ry

     iteration # 10     ecut=    50.00 Ry     beta= 0.50
     Davidson diagonalization with overlap
     ethr =  5.31E-05,  avg # of iterations =  1.0

     total cpu time spent up to now is       25.9 secs

     total energy              =    -496.69184529 Ry
     estimated scf accuracy    <       0.12459398 Ry

     iteration # 11     ecut=    50.00 Ry     beta= 0.50
     Davidson diagonalization with overlap
     ethr =  5.31E-05,  avg # of iterations =  3.0

     negative rho (up, down):  2.845E-08 0.000E+00

     total cpu time spent up to now is       28.4 secs

     total energy              =    -496.69500759 Ry
     estimated scf accuracy    <       0.05174590 Ry

     iteration # 12     ecut=    50.00 Ry     beta= 0.50
     Davidson diagonalization with overlap
     ethr =  5.31E-05,  avg # of iterations =  1.0

     total cpu time spent up to now is       30.1 secs

     total energy              =    -496.68981978 Ry
     estimated scf accuracy    <       0.04964099 Ry

     iteration # 13     ecut=    50.00 Ry     beta= 0.50
     Davidson diagonalization with overlap
     ethr =  5.31E-05,  avg # of iterations =  2.8

     total cpu time spent up to now is       32.4 secs

     total energy              =    -496.68626759 Ry
     estimated scf accuracy    <       0.01866123 Ry

     iteration # 14     ecut=    50.00 Ry     beta= 0.50
     Davidson diagonalization with overlap
     ethr =  5.31E-05,  avg # of iterations =  4.0

     total cpu time spent up to now is       35.4 secs

     total energy              =    -496.69012461 Ry
     estimated scf accuracy    <       0.00053822 Ry

     iteration # 15     ecut=    50.00 Ry     beta= 0.50
     Davidson diagonalization with overlap
     ethr =  2.07E-06,  avg # of iterations =  4.3

     total cpu time spent up to now is       38.3 secs

     total energy              =    -496.69012860 Ry
     estimated scf accuracy    <       0.00033543 Ry

     iteration # 16     ecut=    50.00 Ry     beta= 0.50
     Davidson diagonalization with overlap
     ethr =  1.29E-06,  avg # of iterations =  4.4

     negative rho (up, down):  7.076E-08 0.000E+00

     total cpu time spent up to now is       41.4 secs

     total energy              =    -496.69028784 Ry
     estimated scf accuracy    <       0.00011547 Ry

     iteration # 17     ecut=    50.00 Ry     beta= 0.50
     Davidson diagonalization with overlap
     ethr =  4.44E-07,  avg # of iterations =  3.7

     total cpu time spent up to now is       44.1 secs

     total energy              =    -496.69019629 Ry
     estimated scf accuracy    <       0.00032077 Ry

     iteration # 18     ecut=    50.00 Ry     beta= 0.50
     Davidson diagonalization with overlap
     ethr =  4.44E-07,  avg # of iterations =  4.5

     total cpu time spent up to now is       47.2 secs

     total energy              =    -496.69024344 Ry
     estimated scf accuracy    <       0.00000039 Ry

     iteration # 19     ecut=    50.00 Ry     beta= 0.50
     Davidson diagonalization with overlap
     ethr =  1.50E-09,  avg # of iterations = 11.9

     negative rho (up, down):  2.631E-08 0.000E+00

     total cpu time spent up to now is       55.1 secs

     total energy              =    -496.69024444 Ry
     estimated scf accuracy    <       0.00009791 Ry

     iteration # 20     ecut=    50.00 Ry     beta= 0.50
     Davidson diagonalization with overlap
     ethr =  1.50E-09,  avg # of iterations =  8.0

     negative rho (up, down):  6.436E-08 0.000E+00

     total cpu time spent up to now is       60.5 secs

     total energy              =    -496.69024349 Ry
     estimated scf accuracy    <       0.00002183 Ry

     iteration # 21     ecut=    50.00 Ry     beta= 0.50
     Davidson diagonalization with overlap
     ethr =  1.50E-09,  avg # of iterations =  7.1

     negative rho (up, down):  7.670E-08 0.000E+00

     total cpu time spent up to now is       65.4 secs

     total energy              =    -496.69024450 Ry
     estimated scf accuracy    <       0.00000157 Ry

     iteration # 22     ecut=    50.00 Ry     beta= 0.50
     Davidson diagonalization with overlap
     ethr =  1.50E-09,  avg # of iterations =  5.2

     negative rho (up, down):  7.637E-08 0.000E+00

     total cpu time spent up to now is       68.9 secs

     total energy              =    -496.69024481 Ry
     estimated scf accuracy    <       0.00000005 Ry

     iteration # 23     ecut=    50.00 Ry     beta= 0.50
     Davidson diagonalization with overlap
     ethr =  2.03E-10,  avg # of iterations =  3.6

     negative rho (up, down):  7.655E-08 0.000E+00

     total cpu time spent up to now is       71.6 secs

     total energy              =    -496.69024482 Ry
     estimated scf accuracy    <       0.00000001 Ry

     iteration # 24     ecut=    50.00 Ry     beta= 0.50
     Davidson diagonalization with overlap
     ethr =  4.95E-11,  avg # of iterations =  3.4

     negative rho (up, down):  7.751E-08 0.000E+00

     total cpu time spent up to now is       74.0 secs

     End of self-consistent calculation

          k = 0.0000 0.0000 0.0000 (  4009 PWs)   bands (ev):

   -58.0965 -32.2192 -32.0215 -32.0213 -11.2324  -9.9529  -2.7654   0.2278
     0.2290   1.0634   1.3321   1.3336   2.8017

          k = 0.0000 0.0636 0.0000 (  3997 PWs)   bands (ev):

   -58.0954 -32.2170 -32.0324 -32.0240 -11.1872  -9.9339  -2.7126   0.1242
     0.2756   0.7826   1.2574   1.5463   2.7807

          k = 0.0000 0.1273 0.0000 (  4005 PWs)   bands (ev):

   -58.0923 -32.2108 -32.0644 -32.0313 -11.0548  -9.8783  -2.5640  -0.1553
     0.3722   0.4145   1.0580   1.7286   2.6993

          k = 0.0000 0.1909 0.0000 (  4006 PWs)   bands (ev):

   -58.0875 -32.2011 -32.1130 -32.0425 -10.8445  -9.7901  -2.3544  -0.5242
    -0.0592   0.6310   0.7877   1.7371   2.5188

          k = 0.0000 0.2546 0.0000 (  3990 PWs)   bands (ev):

   -58.0816 -32.1892 -32.1722 -32.0561 -10.5723  -9.6764  -2.1695  -0.8674
    -0.4976   0.4980   0.9013   1.5916   2.2427

          k = 0.0000 0.3182 0.0000 (  4016 PWs)   bands (ev):

   -58.0753 -32.2346 -32.1766 -32.0706 -10.2615  -9.5477  -2.1649  -1.0472
    -0.9285   0.2258   1.1920   1.3835   1.9737

          k = 0.0000 0.3819 0.0000 (  4010 PWs)   bands (ev):

   -58.0694 -32.2926 -32.1647 -32.0841  -9.9443  -9.4185  -2.3755  -1.3248
    -1.0797  -0.0045   1.1915   1.4624   1.8557

          k = 0.0000 0.4455 0.0000 (  4032 PWs)   bands (ev):

   -58.0646 -32.3396 -32.1549 -32.0951  -9.6621  -9.3061  -2.6393  -1.6488
    -1.1265  -0.1778   1.0511   1.6749   1.9363

          k = 0.0000 0.5092 0.0000 (  4040 PWs)   bands (ev):

   -58.0614 -32.3701 -32.1486 -32.1023  -9.4635  -9.2289  -2.8385  -1.8622
    -1.1986  -0.2850   0.9690   1.8063   2.1005

          k = 0.0000-0.5728 0.0000 (  4034 PWs)   bands (ev):

   -58.0603 -32.3806 -32.1464 -32.1048  -9.3913  -9.2013  -2.9120  -1.9368
    -1.2322  -0.3213   0.9423   1.8501   2.1804

          k = 0.0551 0.0318 0.0000 (  3999 PWs)   bands (ev):

   -58.0954 -32.2170 -32.0326 -32.0239 -11.1872  -9.9339  -2.7126   0.1234
     0.2765   0.7821   1.2585   1.5457   2.7807

          k = 0.0551 0.0955 0.0000 (  3993 PWs)   bands (ev):

   -58.0933 -32.2128 -32.0538 -32.0291 -11.0984  -9.8966  -2.6116  -0.0669
     0.3680   0.4939   1.0950   1.7144   2.7295

          k = 0.0551 0.1591 0.0000 (  4000 PWs)   bands (ev):

   -58.0893 -32.2048 -32.0933 -32.0391 -10.9270  -9.8246  -2.4300  -0.3867
     0.1251   0.5403   0.8065   1.8196   2.5977

          k = 0.0551 0.2228 0.0000 (  3991 PWs)   bands (ev):

   -58.0840 -32.1941 -32.1463 -32.0524 -10.6854  -9.7233  -2.2231  -0.7382
    -0.2784   0.4846   0.7696   1.7683   2.3651

          k = 0.0551 0.2864 0.0000 (  4003 PWs)   bands (ev):

   -58.0779 -32.2059 -32.1818 -32.0676 -10.3933  -9.6015  -2.1160  -0.9896
    -0.7080   0.1987   1.0153   1.5920   2.0926

          k = 0.0551 0.3500 0.0000 (  4007 PWs)   bands (ev):

   -58.0718 -32.2650 -32.1695 -32.0827 -10.0778  -9.4714  -2.2350  -1.1359
    -1.0554  -0.0223   1.2198   1.3730   1.9329

          k = 0.0551 0.4137 0.0000 (  4016 PWs)   bands (ev):

   -58.0665 -32.3166 -32.1587 -32.0960  -9.7758  -9.3490  -2.4834  -1.5155
    -1.0758  -0.1780   1.1754   1.3648   1.9823

          k = 0.0551 0.4773 0.0000 (  4024 PWs)   bands (ev):

   -58.0625 -32.3546 -32.1507 -32.1058  -9.5324  -9.2524  -2.7142  -1.7997
    -1.1446  -0.2764   1.0331   1.4917   2.1436

          k = 0.0551 0.5410 0.0000 (  4027 PWs)   bands (ev):

   -58.0603 -32.3747 -32.1464 -32.1110  -9.3947  -9.1989  -2.8490  -1.9519
    -1.2074  -0.3240   0.9597   1.5715   2.2774

          k = 0.1102 0.0636 0.0000 (  4007 PWs)   bands (ev):

   -58.0923 -32.2108 -32.0645 -32.0312 -11.0548  -9.8783  -2.5640  -0.1559
     0.3716   0.4154   1.0592   1.7282   2.6991

          k = 0.1102 0.1273 0.0000 (  4000 PWs)   bands (ev):

   -58.0893 -32.2048 -32.0934 -32.0390 -10.9270  -9.8246  -2.4300  -0.3870
     0.1248   0.5407   0.8071   1.8195   2.5976

          k = 0.1102 0.1909 0.0000 (  4003 PWs)   bands (ev):

   -58.0848 -32.1958 -32.1361 -32.0524 -10.7241  -9.7394  -2.2441  -0.6836
    -0.1525   0.3937   0.7144   1.8848   2.4102

          k = 0.1102 0.2546 0.0000 (  4007 PWs)   bands (ev):

   -58.0793 -32.1874 -32.1846 -32.0694 -10.4619  -9.6292  -2.0927  -0.9345
    -0.4921   0.0120   0.8828   1.8202   2.1720

          k = 0.1102 0.3182 0.0000 (  4006 PWs)   bands (ev):

   -58.0734 -32.2412 -32.1727 -32.0877 -10.1632  -9.5043  -2.1143  -1.0186
    -0.9345  -0.2070   0.9671   1.6367   2.0092

          k = 0.1102 0.3819 0.0000 (  4001 PWs)   bands (ev):

   -58.0678 -32.2913 -32.1615 -32.1049  -9.8595  -9.3783  -2.3022  -1.3820
    -1.0020  -0.3068   0.9659   1.4006   2.0260

          k = 0.1102 0.4455 0.0000 (  4009 PWs)   bands (ev):

   -58.0633 -32.3319 -32.1523 -32.1190  -9.5910  -9.2685  -2.5179  -1.7492
    -1.0454  -0.3397   0.9919   1.1766   2.1677

          k = 0.1102 0.5092 0.0000 (  4024 PWs)   bands (ev):

   -58.0603 -32.3582 -32.1464 -32.1282  -9.4030  -9.1928  -2.6761  -1.9883
    -1.1327  -0.3390   1.0154   1.0466   2.3354

          k = 0.1102 0.5728 0.0000 (  4030 PWs)   bands (ev):

   -58.0593 -32.3673 -32.1443 -32.1314  -9.3350  -9.1656  -2.7339  -2.0712
    -1.1744  -0.3342   0.9561   1.0714   2.4137

          k = 0.1102 0.0000 0.0000 (  3993 PWs)   bands (ev):

   -58.0933 -32.2128 -32.0539 -32.0290 -11.0984  -9.8966  -2.6117  -0.0675
     0.3688   0.4935   1.0959   1.7140   2.7294

          k = 0.1653 0.0955 0.0000 (  4008 PWs)   bands (ev):

   -58.0875 -32.2011 -32.1132 -32.0423 -10.8446  -9.7902  -2.3544  -0.5247
    -0.0598   0.6318   0.7889   1.7369   2.5184

          k = 0.1653 0.1591 0.0000 (  3991 PWs)   bands (ev):

   -58.0840 -32.1941 -32.1463 -32.0523 -10.6855  -9.7234  -2.2232  -0.7386
    -0.2789   0.4856   0.7702   1.7682   2.3647

          k = 0.1653 0.2228 0.0000 (  4007 PWs)   bands (ev):

   -58.0793 -32.1874 -32.1846 -32.0693 -10.4619  -9.6293  -2.0927  -0.9347
    -0.4925   0.0127   0.8831   1.8202   2.1718

          k = 0.1653 0.2864 0.0000 (  4007 PWs)   bands (ev):

   -58.0739 -32.2314 -32.1738 -32.0910 -10.1925  -9.5154  -2.0661  -1.0000
    -0.8103  -0.3400   0.8653   1.7598   2.0356

          k = 0.1653 0.3500 0.0000 (  3995 PWs)   bands (ev):

   -58.0686 -32.2735 -32.1630 -32.1141  -9.9038  -9.3932  -2.1759  -1.2753
    -0.9371  -0.4423   0.6950   1.5783   2.0368

          k = 0.1653 0.4137 0.0000 (  3993 PWs)   bands (ev):

   -58.0639 -32.3095 -32.1535 -32.1353  -9.6302  -9.2776  -2.3282  -1.7074
    -0.9130  -0.4302   0.5283   1.3333   2.1517

          k = 0.1653 0.4773 0.0000 (  4012 PWs)   bands (ev):

   -58.0603 -32.3358 -32.1513 -32.1464  -9.4124  -9.1858  -2.4499  -2.0267
    -1.0035  -0.3679   0.4704   1.0971   2.3318

          k = 0.1653 0.5410 0.0000 (  4016 PWs)   bands (ev):

   -58.0585 -32.3497 -32.1599 -32.1426  -9.2905  -9.1347  -2.5138  -2.1956
    -1.1019  -0.3090   0.4692   0.9456   2.4835

          k = 0.1653-0.0318 0.0000 (  4000 PWs)   bands (ev):

   -58.0893 -32.2048 -32.0935 -32.0389 -10.9270  -9.8247  -2.4301  -0.3872
     0.1246   0.5411   0.8075   1.8194   2.5974

          k = 0.2204 0.1273 0.0000 (  3990 PWs)   bands (ev):

   -58.0816 -32.1892 -32.1723 -32.0559 -10.5724  -9.6766  -2.1695  -0.8678
    -0.4981   0.4993   0.9022   1.5914   2.2422

          k = 0.2204 0.1909 0.0000 (  4003 PWs)   bands (ev):

   -58.0779 -32.2060 -32.1818 -32.0674 -10.3934  -9.6017  -2.1160  -0.9901
    -0.7085   0.1998   1.0160   1.5920   2.0921

          k = 0.2204 0.2546 0.0000 (  4008 PWs)   bands (ev):

   -58.0734 -32.2413 -32.1727 -32.0875 -10.1633  -9.5044  -2.1143  -1.0189
    -0.9348  -0.2062   0.9676   1.6367   2.0089

          k = 0.2204 0.3182 0.0000 (  3997 PWs)   bands (ev):

   -58.0686 -32.2735 -32.1630 -32.1141  -9.9038  -9.3933  -2.1759  -1.2754
    -0.9372  -0.4420   0.6952   1.5783   2.0367

          k = 0.2204 0.3819 0.0000 (  4007 PWs)   bands (ev):

   -58.0640 -32.2995 -32.1539 -32.1432  -9.6440  -9.2805  -2.2474  -1.6896
    -0.8317  -0.4719   0.3170   1.4015   2.1402

          k = 0.2204 0.4455 0.0000 (  3997 PWs)   bands (ev):

   -58.0604 -32.3175 -32.1701 -32.1464  -9.4185  -9.1813  -2.2791  -2.0502
    -0.8329  -0.3919   0.0107   1.1603   2.3150

          k = 0.2204 0.5092 0.0000 (  4018 PWs)   bands (ev):

   -58.0579 -32.3275 -32.1893 -32.1416  -9.2637  -9.1126  -2.2887  -2.2640
    -0.9762  -0.2763  -0.1117   0.9369   2.5185

          k = 0.2204 0.5728 0.0000 (  4021 PWs)   bands (ev):

   -58.0571 -32.3306 -32.1964 -32.1399  -9.2083  -9.0878  -2.3718  -2.2457
    -1.0662  -0.2164  -0.1328   0.8390   2.6180

          k = 0.2204-0.0636 0.0000 (  3991 PWs)   bands (ev):

   -58.0840 -32.1941 -32.1464 -32.0522 -10.6856  -9.7235  -2.2232  -0.7386
    -0.2789   0.4857   0.7703   1.7681   2.3646

          k = 0.2204 0.0000 0.0000 (  4003 PWs)   bands (ev):

   -58.0848 -32.1958 -32.1361 -32.0522 -10.7242  -9.7395  -2.2442  -0.6837
    -0.1528   0.3943   0.7148   1.8847   2.4099

          k = 0.2756 0.1591 0.0000 (  4016 PWs)   bands (ev):

   -58.0753 -32.2347 -32.1766 -32.0704 -10.2617  -9.5480  -2.1649  -1.0477
    -0.9288   0.2272   1.1928   1.3832   1.9731

          k = 0.2756 0.2228 0.0000 (  4007 PWs)   bands (ev):

   -58.0718 -32.2651 -32.1695 -32.0825 -10.0780  -9.4717  -2.2351  -1.1362
    -1.0559  -0.0211   1.2206   1.3728   1.9324

          k = 0.2756 0.2864 0.0000 (  4001 PWs)   bands (ev):

   -58.0678 -32.2914 -32.1615 -32.1048  -9.8596  -9.3786  -2.3023  -1.3821
    -1.0023  -0.3059   0.9664   1.4005   2.0257

          k = 0.2756 0.3500 0.0000 (  3993 PWs)   bands (ev):

   -58.0639 -32.3096 -32.1535 -32.1351  -9.6303  -9.2778  -2.3283  -1.7074
    -0.9132  -0.4298   0.5288   1.3332   2.1515

          k = 0.2756 0.4137 0.0000 (  3997 PWs)   bands (ev):

   -58.0604 -32.3175 -32.1700 -32.1464  -9.4185  -9.1814  -2.2792  -2.0501
    -0.8330  -0.3917   0.0110   1.1603   2.3149

          k = 0.2756 0.4773 0.0000 (  4015 PWs)   bands (ev):

   -58.0578 -32.3156 -32.2038 -32.1412  -9.2548  -9.1046  -2.3230  -2.1429
    -0.8338  -0.4463  -0.2623   0.9342   2.5298

          k = 0.2756 0.5410 0.0000 (  4025 PWs)   bands (ev):

   -58.0564 -32.3088 -32.2275 -32.1384  -9.1653  -9.0615  -2.4718  -1.9719
    -1.0340  -0.5997  -0.1316   0.7511   2.7138

          k = 0.2756-0.0955 0.0000 (  4003 PWs)   bands (ev):

   -58.0779 -32.2060 -32.1818 -32.0674 -10.3934  -9.6018  -2.1160  -0.9899
    -0.7083   0.1998   1.0159   1.5919   2.0921

          k = 0.2756-0.0318 0.0000 (  4007 PWs)   bands (ev):

   -58.0793 -32.1874 -32.1846 -32.0692 -10.4620  -9.6294  -2.0927  -0.9346
    -0.4923   0.0128   0.8831   1.8202   2.1717

          k = 0.3307 0.1909 0.0000 (  4006 PWs)   bands (ev):

   -58.0694 -32.2927 -32.1647 -32.0839  -9.9445  -9.4189  -2.3755  -1.3249
    -1.0801  -0.0031   1.1911   1.4634   1.8550

          k = 0.3307 0.2546 0.0000 (  4016 PWs)   bands (ev):

   -58.0665 -32.3166 -32.1587 -32.0958  -9.7760  -9.3494  -2.4835  -1.5155
    -1.0761  -0.1768   1.1751   1.3655   1.9819

          k = 0.3307 0.3182 0.0000 (  4009 PWs)   bands (ev):

   -58.0633 -32.3319 -32.1524 -32.1188  -9.5911  -9.2689  -2.5181  -1.7490
    -1.0455  -0.3388   0.9924   1.1763   2.1674

          k = 0.3307 0.3819 0.0000 (  4012 PWs)   bands (ev):

   -58.0604 -32.3359 -32.1511 -32.1464  -9.4125  -9.1861  -2.4501  -2.0264
    -1.0036  -0.3673   0.4710   1.0969   2.3315

          k = 0.3307 0.4455 0.0000 (  4016 PWs)   bands (ev):

   -58.0579 -32.3276 -32.1892 -32.1416  -9.2638  -9.1128  -2.2885  -2.2641
    -0.9763  -0.2760  -0.1113   0.9367   2.5183

          k = 0.3307 0.5092 0.0000 (  4025 PWs)   bands (ev):

   -58.0564 -32.3088 -32.2275 -32.1384  -9.1654  -9.0616  -2.4717  -1.9720
    -1.0341  -0.5995  -0.1314   0.7509   2.7138

          k = 0.3307 0.5728 0.0000 (  4035 PWs)   bands (ev):

   -58.0558 -32.2925 -32.2506 -32.1373  -9.1310  -9.0432  -2.5370  -1.7369
    -1.2168  -0.7421  -0.0492   0.6546   2.8090

          k = 0.3307-0.1273 0.0000 (  4007 PWs)   bands (ev):

   -58.0718 -32.2651 -32.1695 -32.0825 -10.0781  -9.4718  -2.2350  -1.1360
    -1.0558  -0.0211   1.2203   1.3728   1.9325

          k = 0.3307-0.0636 0.0000 (  4008 PWs)   bands (ev):

   -58.0734 -32.2413 -32.1727 -32.0875 -10.1634  -9.5046  -2.1143  -1.0187
    -0.9344  -0.2063   0.9672   1.6367   2.0091

          k = 0.3307 0.0000 0.0000 (  4007 PWs)   bands (ev):

   -58.0739 -32.2314 -32.1738 -32.0909 -10.1927  -9.5157  -2.0660  -0.9999
    -0.8100  -0.3399   0.8651   1.7598   2.0357

          k = 0.3858 0.2228 0.0000 (  4032 PWs)   bands (ev):

   -58.0646 -32.3397 -32.1550 -32.0949  -9.6624  -9.3067  -2.6395  -1.6487
    -1.1267  -0.1763   1.0506   1.6760   1.9355

          k = 0.3858 0.2864 0.0000 (  4024 PWs)   bands (ev):

   -58.0625 -32.3546 -32.1507 -32.1056  -9.5327  -9.2530  -2.7145  -1.7995
    -1.1447  -0.2751   1.0326   1.4925   2.1432

          k = 0.3858 0.3500 0.0000 (  4024 PWs)   bands (ev):

   -58.0604 -32.3583 -32.1464 -32.1280  -9.4032  -9.1932  -2.6764  -1.9879
    -1.1327  -0.3380   1.0149   1.0473   2.3351

          k = 0.3858 0.4137 0.0000 (  4016 PWs)   bands (ev):

   -58.0585 -32.3497 -32.1597 -32.1426  -9.2907  -9.1351  -2.5140  -2.1952
    -1.1019  -0.3083   0.4697   0.9452   2.4832

          k = 0.3858 0.4773 0.0000 (  4021 PWs)   bands (ev):

   -58.0571 -32.3307 -32.1962 -32.1399  -9.2085  -9.0881  -2.3714  -2.2458
    -1.0663  -0.2158  -0.1325   0.8386   2.6180

          k = 0.3858 0.5410 0.0000 (  4025 PWs)   bands (ev):

   -58.0564 -32.3088 -32.2274 -32.1384  -9.1654  -9.0617  -2.4715  -1.9718
    -1.0343  -0.5995  -0.1312   0.7508   2.7139

          k = 0.3858-0.1591 0.0000 (  4016 PWs)   bands (ev):

   -58.0665 -32.3166 -32.1587 -32.0958  -9.7760  -9.3495  -2.4834  -1.5154
    -1.0761  -0.1768   1.1751   1.3652   1.9822

          k = 0.3858-0.0955 0.0000 (  4001 PWs)   bands (ev):

   -58.0679 -32.2914 -32.1615 -32.1047  -9.8598  -9.3788  -2.3020  -1.3817
    -1.0022  -0.3060   0.9660   1.4004   2.0261

          k = 0.3858-0.0318 0.0000 (  3997 PWs)   bands (ev):

   -58.0686 -32.2735 -32.1630 -32.1140  -9.9040  -9.3936  -2.1757  -1.2749
    -0.9371  -0.4420   0.6946   1.5782   2.0371

          k = 0.4409 0.2546 0.0000 (  4038 PWs)   bands (ev):

   -58.0615 -32.3702 -32.1486 -32.1021  -9.4638  -9.2295  -2.8387  -1.8619
    -1.1987  -0.2835   0.9684   1.8075   2.0997

          k = 0.4409 0.3182 0.0000 (  4027 PWs)   bands (ev):

   -58.0604 -32.3747 -32.1464 -32.1108  -9.3950  -9.1994  -2.8492  -1.9516
    -1.2074  -0.3226   0.9591   1.5723   2.2769

          k = 0.4409 0.3819 0.0000 (  4032 PWs)   bands (ev):

   -58.0593 -32.3674 -32.1443 -32.1312  -9.3353  -9.1662  -2.7341  -2.0708
    -1.1744  -0.3331   0.9555   1.0720   2.4134

          k = 0.4409 0.4455 0.0000 (  4016 PWs)   bands (ev):

   -58.0585 -32.3497 -32.1597 -32.1426  -9.2907  -9.1352  -2.5138  -2.1951
    -1.1019  -0.3082   0.4696   0.9452   2.4834

          k = 0.4409 0.5092 0.0000 (  4018 PWs)   bands (ev):

   -58.0580 -32.3275 -32.1892 -32.1416  -9.2639  -9.1129  -2.2883  -2.2638
    -0.9763  -0.2759  -0.1115   0.9366   2.5187

          k = 0.4409 0.5728 0.0000 (  4015 PWs)   bands (ev):

   -58.0578 -32.3156 -32.2037 -32.1412  -9.2550  -9.1048  -2.3226  -2.1425
    -0.8339  -0.4465  -0.2620   0.9340   2.5302

          k = 0.4409-0.1909 0.0000 (  4026 PWs)   bands (ev):

   -58.0625 -32.3546 -32.1507 -32.1056  -9.5327  -9.2530  -2.7143  -1.7994
    -1.1447  -0.2751   1.0325   1.4923   2.1435

          k = 0.4409-0.1273 0.0000 (  4007 PWs)   bands (ev):

   -58.0633 -32.3319 -32.1524 -32.1188  -9.5912  -9.2690  -2.5178  -1.7488
    -1.0456  -0.3388   0.9921   1.1762   2.1678

          k = 0.4409-0.0636 0.0000 (  3993 PWs)   bands (ev):

   -58.0639 -32.3095 -32.1535 -32.1351  -9.6304  -9.2780  -2.3279  -1.7069
    -0.9132  -0.4297   0.5282   1.3331   2.1520

          k = 0.4409 0.0000 0.0000 (  4007 PWs)   bands (ev):

   -58.0641 -32.2995 -32.1539 -32.1431  -9.6442  -9.2808  -2.2470  -1.6891
    -0.8317  -0.4717   0.3165   1.4013   2.1407

          k =-0.4960-0.2864 0.0000 (  4034 PWs)   bands (ev):

   -58.0604 -32.3807 -32.1464 -32.1046  -9.3917  -9.2019  -2.9123  -1.9364
    -1.2322  -0.3198   0.9416   1.8513   2.1796

          k =-0.4960-0.2228 0.0000 (  4027 PWs)   bands (ev):

   -58.0604 -32.3747 -32.1464 -32.1108  -9.3950  -9.1994  -2.8492  -1.9515
    -1.2074  -0.3226   0.9591   1.5722   2.2770

          k =-0.4960-0.1591 0.0000 (  4024 PWs)   bands (ev):

   -58.0604 -32.3583 -32.1464 -32.1280  -9.4033  -9.1933  -2.6762  -1.9878
    -1.1328  -0.3380   1.0148   1.0471   2.3354

          k =-0.4960-0.0955 0.0000 (  4012 PWs)   bands (ev):

   -58.0604 -32.3358 -32.1511 -32.1464  -9.4127  -9.1863  -2.4498  -2.0262
    -1.0036  -0.3673   0.4707   1.0968   2.3320

          k =-0.4960-0.0318 0.0000 (  3997 PWs)   bands (ev):

   -58.0604 -32.3175 -32.1700 -32.1464  -9.4187  -9.1817  -2.2788  -2.0497
    -0.8330  -0.3916   0.0105   1.1601   2.3154

     highest occupied level (ev):     2.8090

!    total energy              =    -496.69024481 Ry

     total all-electron energy =     -9695.021631 Ry
     estimated scf accuracy    <          5.9E-09 Ry

     The total energy is the sum of the following terms:
     one-electron contribution =    -417.87441768 Ry
     hartree contribution      =     215.23370325 Ry
     xc contribution           =     -42.55233366 Ry
     ewald contribution        =      55.45275976 Ry
     one-center paw contrib.   =    -306.94995648 Ry

     convergence has been achieved in  24 iterations

     negative rho (up, down):  7.751E-08 0.000E+00

     Forces acting on atoms (cartesian axes, Ry/au):

     atom    1 type  1   force =     0.00000000    0.00005792    0.00000000
     atom    2 type  2   force =     0.00000000   -0.00002896   -0.00010489
     atom    3 type  2   force =     0.00000000   -0.00002896    0.00010489

     Total force =     0.000164     Total SCF correction =     0.000170
     SCF correction compared to forces is large: reduce conv_thr to get better values


     Computing stress (Cartesian axis) and pressure


     negative rho (up, down):  7.751E-08 0.000E+00
          total   stress  (Ry/bohr**3)                   (kbar)     P=       -0.48
  -0.00000233   0.00000000   0.00000000           -0.34        0.00        0.00
   0.00000000  -0.00000169   0.00000000            0.00       -0.25        0.00
   0.00000000   0.00000000  -0.00000574            0.00        0.00       -0.84


     Writing output data file ./MoS2.save/
 
     init_run     :      1.42s CPU      1.55s WALL (       1 calls)
     electrons    :     70.32s CPU     72.10s WALL (       1 calls)
     forces       :      0.28s CPU      0.29s WALL (       1 calls)
     stress       :      0.67s CPU      0.67s WALL (       1 calls)

     Called by init_run:
     wfcinit      :      0.85s CPU      0.88s WALL (       1 calls)
     potinit      :      0.24s CPU      0.26s WALL (       1 calls)
     hinit0       :      0.25s CPU      0.31s WALL (       1 calls)

     Called by electrons:
     c_bands      :     61.95s CPU     63.34s WALL (      24 calls)
     sum_band     :      4.85s CPU      5.11s WALL (      24 calls)
     v_of_rho     :      0.32s CPU      0.34s WALL (      25 calls)
     newd         :      0.59s CPU      0.62s WALL (      25 calls)
     PAW_pot      :      1.47s CPU      1.54s WALL (      25 calls)
     mix_rho      :      1.23s CPU      1.26s WALL (      24 calls)

     Called by c_bands:
     init_us_2    :      0.58s CPU      0.60s WALL (    4641 calls)
     cegterg      :     60.29s CPU     61.64s WALL (    2184 calls)

     Called by *egterg:
     cdiaghg      :     25.31s CPU     25.52s WALL (   10720 calls)
     h_psi        :     23.09s CPU     23.97s WALL (   10811 calls)
     s_psi        :      0.33s CPU      0.35s WALL (   10811 calls)
     g_psi        :      0.12s CPU      0.12s WALL (    8536 calls)

     Called by h_psi:
     h_psi:calbec :      1.15s CPU      1.21s WALL (   10811 calls)
     vloc_psi     :     21.44s CPU     22.24s WALL (   10811 calls)
     add_vuspsi   :      0.37s CPU      0.38s WALL (   10811 calls)

     General routines
     calbec       :      1.47s CPU      1.55s WALL (   13450 calls)
     fft          :      0.24s CPU      0.28s WALL (     348 calls)
     ffts         :      0.65s CPU      0.66s WALL (    3950 calls)
     fftw         :     23.37s CPU     24.29s WALL (  212154 calls)
     interpolate  :      0.03s CPU      0.03s WALL (      25 calls)
 
     Parallel routines
     fft_scatt_xy :      1.87s CPU      1.94s WALL (  216452 calls)
     fft_scatt_yz :     10.72s CPU     11.13s WALL (  216452 calls)
 
     PWSCF        :   1m13.53s CPU   1m15.69s WALL

 
   This run was terminated on:  11:48:13  23Feb2022            

=------------------------------------------------------------------------------=
   JOB DONE.
=------------------------------------------------------------------------------=
