
     Program PHONON v.6.7MaX starts on 23Feb2022 at 11:48:13 

     This program is part of the open-source Quantum ESPRESSO suite
     for quantum simulation of materials; please cite
         "P. Giannozzi et al., J. Phys.:Condens. Matter 21 395502 (2009);
         "P. Giannozzi et al., J. Phys.:Condens. Matter 29 465901 (2017);
          URL http://www.quantum-espresso.org", 
     in publications or presentations arising from this work. More details at
     http://www.quantum-espresso.org/quote

     Parallel version (MPI), running on    20 processors

     MPI processes distributed on     1 nodes
     R & G space division:  proc/nbgrp/npool/nimage =      20
     Waiting for input...
     Reading input from standard input

     Reading xml data from directory:

     ./MoS2.save/
     Message from routine qexsd_readschema :
     input info not found or not readable in xml file
     file Mo.pbe-spn-kjpaw_psl.0.2.UPF: wavefunction(s)  4D renormalized
     file S.pbe-n-kjpaw_psl.0.1.UPF: wavefunction(s)  3P renormalized

     IMPORTANT: XC functional enforced from input :
     Exchange-correlation= PBE
                           (   1   4   3   4   0   0   0)
     Any further DFT definition will be discarded
     Please, verify this is what you really want

 
     Parallelization info
     --------------------
     sticks:   dense  smooth     PW     G-vecs:    dense   smooth      PW
     Min          63      24      7                 6341     1592     265
     Max          64      25      8                 6354     1611     280
     Sum        1261     499    151               126991    32155    5459
 

     Check: negative core charge=   -0.000001

     negative rho (up, down):  7.751E-08 0.000E+00
     Reading collected, re-writing distributed wavefunctions


     Dynamical matrices for ( 5, 5, 1)  uniform grid of q-points
     (   9 q-points):
       N         xq(1)         xq(2)         xq(3) 
       1   0.000000000   0.000000000   0.000000000
       2   0.000000000   0.229120170   0.000000000
       3   0.000000000   0.458240340   0.000000000
       4   0.198399371   0.114560085   0.000000000
       5   0.198399371   0.343680255   0.000000000
       6   0.198399371   0.572800425   0.000000000
       7   0.396798743   0.229120170   0.000000000
       8   0.396798743   0.458240340   0.000000000
       9   0.396798743   0.000000000   0.000000000

     Calculation of q =    0.0000000   0.0000000   0.0000000

                                                                                

     bravais-lattice index     =            0
     lattice parameter (alat)  =       5.9830  a.u.
     unit-cell volume          =     671.9051 (a.u.)^3
     number of atoms/cell      =            3
     number of atomic types    =            2
     kinetic-energy cut-off    =      50.0000  Ry
     charge density cut-off    =     500.0000  Ry
     convergence threshold     =      1.0E-20
     beta                      =       0.7000
     number of iterations used =            4
     Exchange-correlation= PBE
                           (   1   4   3   4   0   0   0)


     celldm(1)=    5.98300  celldm(2)=    0.00000  celldm(3)=    0.00000
     celldm(4)=    0.00000  celldm(5)=    0.00000  celldm(6)=    0.00000

     crystal axes: (cart. coord. in units of alat)
               a(1) = (  1.0081  0.0000  0.0000 )  
               a(2) = ( -0.5040  0.8729  0.0000 )  
               a(3) = (  0.0000  0.0000  3.5653 )  

     reciprocal axes: (cart. coord. in units 2 pi/alat)
               b(1) = (  0.9920  0.5728  0.0000 )  
               b(2) = (  0.0000  1.1456  0.0000 )  
               b(3) = (  0.0000  0.0000  0.2805 )  


     Atoms inside the unit cell: 

     Cartesian axes

     site n.  atom      mass           positions (alat units)
        1     Mo  95.9400   tau(    1) = (    0.00000    0.00305    0.00000  )
        2     S   32.0650   tau(    2) = (    0.00000    0.58502    0.49491  )
        3     S   32.0650   tau(    3) = (    0.00000    0.58502   -0.49491  )

     Computing dynamical matrix for 
                    q = (   0.0000000   0.0000000   0.0000000 )
 
      5 Sym.Ops. (with q -> -q+G )


     G cutoff =  453.3653  (   6351 G-vectors)     FFT grid: ( 45, 45,160)
     G cutoff =  181.3461  (   1611 G-vectors)  smooth grid: ( 27, 27,100)
     number of k points=    91

     PseudoPot. # 1 for Mo read from file:
     ../Pseudo/Mo.pbe-spn-kjpaw_psl.0.2.UPF
     MD5 check sum: 99c4efbabb9e14294ed14bd31c5e2f8a
     Pseudo is Projector augmented-wave + core cor, Zval = 14.0
     Generated using "atomic" code by A. Dal Corso  v.5.0.2 svn rev. 9415
     Shape of augmentation charge: PSQ
     Using radial grid of 1229 points,  6 beta functions with: 
                l(1) =   0
                l(2) =   0
                l(3) =   1
                l(4) =   1
                l(5) =   2
                l(6) =   2
     Q(r) pseudized with 0 coefficients 


     PseudoPot. # 2 for S  read from file:
     ../Pseudo/S.pbe-n-kjpaw_psl.0.1.UPF
     MD5 check sum: 5138ed5699b2c5d2fdac7c35a9631f5b
     Pseudo is Projector augmented-wave + core cor, Zval =  6.0
     Generated using "atomic" code by A. Dal Corso  v.5.0.2 svn rev. 9415
     Shape of augmentation charge: PSQ
     Using radial grid of 1151 points,  4 beta functions with: 
                l(1) =   0
                l(2) =   0
                l(3) =   1
                l(4) =   1
     Q(r) pseudized with 0 coefficients 


     Mode symmetry, C_2v (mm2)  point group:


     Electric field:
     Dielectric constant
     Born effective charges in two ways 


     Atomic displacements:
     There are    9 irreducible representations

     Representation     1      1 modes -  To be done

     Representation     2      1 modes -  To be done

     Representation     3      1 modes -  To be done

     Representation     4      1 modes -  To be done

     Representation     5      1 modes -  To be done

     Representation     6      1 modes -  To be done

     Representation     7      1 modes -  To be done

     Representation     8      1 modes -  To be done

     Representation     9      1 modes -  To be done



     Alpha used in Ewald sum =   2.8000

     negative rho (up, down):  7.751E-08 0.000E+00
     PHONON       :      4.37s CPU      4.58s WALL


     Electric Fields Calculation

      iter #   1 total cpu time :    55.8 secs   av.it.:  11.1
      thresh= 1.000E-02 alpha_mix =  0.700 |ddv_scf|^2 =  7.829E-05

      iter #   2 total cpu time :    74.9 secs   av.it.:  15.2
      thresh= 8.848E-04 alpha_mix =  0.700 |ddv_scf|^2 =  1.260E-03

      iter #   3 total cpu time :    86.5 secs   av.it.:   8.1
      thresh= 3.550E-03 alpha_mix =  0.700 |ddv_scf|^2 =  1.065E-06

      iter #   4 total cpu time :   105.7 secs   av.it.:  15.3
      thresh= 1.032E-04 alpha_mix =  0.700 |ddv_scf|^2 =  9.891E-08

      iter #   5 total cpu time :   124.1 secs   av.it.:  14.6
      thresh= 3.145E-05 alpha_mix =  0.700 |ddv_scf|^2 =  3.326E-10

      iter #   6 total cpu time :   146.3 secs   av.it.:  18.2
      thresh= 1.824E-06 alpha_mix =  0.700 |ddv_scf|^2 =  2.639E-10

      iter #   7 total cpu time :   164.8 secs   av.it.:  14.7
      thresh= 1.624E-06 alpha_mix =  0.700 |ddv_scf|^2 =  9.870E-12

      iter #   8 total cpu time :   187.2 secs   av.it.:  18.4
      thresh= 3.142E-07 alpha_mix =  0.700 |ddv_scf|^2 =  1.315E-12

      iter #   9 total cpu time :   207.7 secs   av.it.:  16.6
      thresh= 1.147E-07 alpha_mix =  0.700 |ddv_scf|^2 =  2.849E-14

      iter #  10 total cpu time :   229.2 secs   av.it.:  17.5
      thresh= 1.688E-08 alpha_mix =  0.700 |ddv_scf|^2 =  1.627E-15

      iter #  11 total cpu time :   251.1 secs   av.it.:  17.9
      thresh= 4.033E-09 alpha_mix =  0.700 |ddv_scf|^2 =  5.076E-17

      iter #  12 total cpu time :   274.4 secs   av.it.:  19.3
      thresh= 7.125E-10 alpha_mix =  0.700 |ddv_scf|^2 =  5.551E-17

      iter #  13 total cpu time :   294.7 secs   av.it.:  16.4
      thresh= 7.451E-10 alpha_mix =  0.700 |ddv_scf|^2 =  5.673E-19

      iter #  14 total cpu time :   317.9 secs   av.it.:  19.2
      thresh= 7.532E-11 alpha_mix =  0.700 |ddv_scf|^2 =  1.917E-19

      iter #  15 total cpu time :   339.0 secs   av.it.:  17.1
      thresh= 4.378E-11 alpha_mix =  0.700 |ddv_scf|^2 =  2.652E-20

      iter #  16 total cpu time :   359.5 secs   av.it.:  16.6
      thresh= 1.629E-11 alpha_mix =  0.700 |ddv_scf|^2 =  1.662E-20

      iter #  17 total cpu time :   380.0 secs   av.it.:  16.5
      thresh= 1.289E-11 alpha_mix =  0.700 |ddv_scf|^2 =  2.210E-22

     End of electric fields calculation

          Dielectric constant in cartesian axis 

          (       8.708581753       0.000000000       0.000000000 )
          (       0.000000000       8.704066817       0.000000000 )
          (       0.000000000       0.000000000       1.827152173 )

          Effective charges (d Force / dE) in cartesian axis

           atom      1   Mo 
      Ex  (       -1.00542        0.00000        0.00000 )
      Ey  (        0.00000       -0.99694        0.00000 )
      Ez  (        0.00000        0.00000       -0.11246 )
           atom      2   S  
      Ex  (        0.50574        0.00000        0.00000 )
      Ey  (        0.00000        0.50488       -0.00024 )
      Ez  (        0.00000        0.00001        0.05480 )
           atom      3   S  
      Ex  (        0.50574        0.00000        0.00000 )
      Ey  (        0.00000        0.50488        0.00024 )
      Ez  (        0.00000       -0.00001        0.05480 )


     Representation #   1 mode #   1

     Self-consistent Calculation

      iter #   1 total cpu time :   395.2 secs   av.it.:   9.1
      thresh= 1.000E-02 alpha_mix =  0.700 |ddv_scf|^2 =  1.424E-05

      iter #   2 total cpu time :   402.4 secs   av.it.:  16.9
      thresh= 3.773E-04 alpha_mix =  0.700 |ddv_scf|^2 =  1.500E-04

      iter #   3 total cpu time :   408.8 secs   av.it.:  15.0
      thresh= 1.225E-03 alpha_mix =  0.700 |ddv_scf|^2 =  1.935E-06

      iter #   4 total cpu time :   415.6 secs   av.it.:  16.0
      thresh= 1.391E-04 alpha_mix =  0.700 |ddv_scf|^2 =  9.200E-09

      iter #   5 total cpu time :   422.7 secs   av.it.:  17.0
      thresh= 9.592E-06 alpha_mix =  0.700 |ddv_scf|^2 =  2.320E-10

      iter #   6 total cpu time :   430.1 secs   av.it.:  17.8
      thresh= 1.523E-06 alpha_mix =  0.700 |ddv_scf|^2 =  9.325E-12

      iter #   7 total cpu time :   437.3 secs   av.it.:  17.5
      thresh= 3.054E-07 alpha_mix =  0.700 |ddv_scf|^2 =  1.489E-12

      iter #   8 total cpu time :   444.1 secs   av.it.:  15.9
      thresh= 1.220E-07 alpha_mix =  0.700 |ddv_scf|^2 =  3.438E-14

      iter #   9 total cpu time :   451.0 secs   av.it.:  16.4
      thresh= 1.854E-08 alpha_mix =  0.700 |ddv_scf|^2 =  5.672E-16

      iter #  10 total cpu time :   458.3 secs   av.it.:  17.8
      thresh= 2.382E-09 alpha_mix =  0.700 |ddv_scf|^2 =  1.160E-17

      iter #  11 total cpu time :   466.1 secs   av.it.:  19.0
      thresh= 3.405E-10 alpha_mix =  0.700 |ddv_scf|^2 =  6.632E-18

      iter #  12 total cpu time :   473.2 secs   av.it.:  16.9
      thresh= 2.575E-10 alpha_mix =  0.700 |ddv_scf|^2 =  9.136E-20

      iter #  13 total cpu time :   480.1 secs   av.it.:  16.5
      thresh= 3.023E-11 alpha_mix =  0.700 |ddv_scf|^2 =  1.013E-20

      iter #  14 total cpu time :   487.1 secs   av.it.:  16.7
      thresh= 1.006E-11 alpha_mix =  0.700 |ddv_scf|^2 =  1.052E-22

     End of self-consistent calculation

     Convergence has been achieved 


     Representation #   2 mode #   2

     Self-consistent Calculation

      iter #   1 total cpu time :   492.4 secs   av.it.:   9.1
      thresh= 1.000E-02 alpha_mix =  0.700 |ddv_scf|^2 =  1.378E-05

      iter #   2 total cpu time :   499.5 secs   av.it.:  16.9
      thresh= 3.712E-04 alpha_mix =  0.700 |ddv_scf|^2 =  1.457E-04

      iter #   3 total cpu time :   505.9 secs   av.it.:  15.0
      thresh= 1.207E-03 alpha_mix =  0.700 |ddv_scf|^2 =  1.842E-06

      iter #   4 total cpu time :   512.7 secs   av.it.:  16.0
      thresh= 1.357E-04 alpha_mix =  0.700 |ddv_scf|^2 =  5.649E-09

      iter #   5 total cpu time :   520.0 secs   av.it.:  17.5
      thresh= 7.516E-06 alpha_mix =  0.700 |ddv_scf|^2 =  7.998E-10

      iter #   6 total cpu time :   527.2 secs   av.it.:  17.3
      thresh= 2.828E-06 alpha_mix =  0.700 |ddv_scf|^2 =  5.525E-12

      iter #   7 total cpu time :   534.7 secs   av.it.:  18.0
      thresh= 2.350E-07 alpha_mix =  0.700 |ddv_scf|^2 =  4.884E-13

      iter #   8 total cpu time :   541.3 secs   av.it.:  15.8
      thresh= 6.988E-08 alpha_mix =  0.700 |ddv_scf|^2 =  1.184E-14

      iter #   9 total cpu time :   548.5 secs   av.it.:  17.1
      thresh= 1.088E-08 alpha_mix =  0.700 |ddv_scf|^2 =  3.501E-16

      iter #  10 total cpu time :   555.7 secs   av.it.:  17.5
      thresh= 1.871E-09 alpha_mix =  0.700 |ddv_scf|^2 =  1.042E-17

      iter #  11 total cpu time :   563.6 secs   av.it.:  19.1
      thresh= 3.228E-10 alpha_mix =  0.700 |ddv_scf|^2 =  1.241E-17

      iter #  12 total cpu time :   570.5 secs   av.it.:  16.6
      thresh= 3.523E-10 alpha_mix =  0.700 |ddv_scf|^2 =  2.353E-19

      iter #  13 total cpu time :   577.3 secs   av.it.:  16.0
      thresh= 4.850E-11 alpha_mix =  0.700 |ddv_scf|^2 =  8.474E-21

     End of self-consistent calculation

     Convergence has been achieved 


     Representation #   3 mode #   3

     Self-consistent Calculation

      iter #   1 total cpu time :   583.1 secs   av.it.:  10.9
      thresh= 1.000E-02 alpha_mix =  0.700 |ddv_scf|^2 =  1.124E-06

      iter #   2 total cpu time :   590.5 secs   av.it.:  17.9
      thresh= 1.060E-04 alpha_mix =  0.700 |ddv_scf|^2 =  7.831E-08

      iter #   3 total cpu time :   598.0 secs   av.it.:  18.1
      thresh= 2.798E-05 alpha_mix =  0.700 |ddv_scf|^2 =  3.918E-09

      iter #   4 total cpu time :   605.4 secs   av.it.:  17.8
      thresh= 6.259E-06 alpha_mix =  0.700 |ddv_scf|^2 =  1.904E-10

      iter #   5 total cpu time :   613.0 secs   av.it.:  18.5
      thresh= 1.380E-06 alpha_mix =  0.700 |ddv_scf|^2 =  7.315E-10

      iter #   6 total cpu time :   619.5 secs   av.it.:  15.5
      thresh= 2.705E-06 alpha_mix =  0.700 |ddv_scf|^2 =  1.377E-12

      iter #   7 total cpu time :   627.0 secs   av.it.:  18.0
      thresh= 1.173E-07 alpha_mix =  0.700 |ddv_scf|^2 =  3.565E-14

      iter #   8 total cpu time :   634.7 secs   av.it.:  18.9
      thresh= 1.888E-08 alpha_mix =  0.700 |ddv_scf|^2 =  2.424E-14

      iter #   9 total cpu time :   641.9 secs   av.it.:  17.0
      thresh= 1.557E-08 alpha_mix =  0.700 |ddv_scf|^2 =  5.053E-15

      iter #  10 total cpu time :   648.9 secs   av.it.:  16.7
      thresh= 7.108E-09 alpha_mix =  0.700 |ddv_scf|^2 =  2.065E-17

      iter #  11 total cpu time :   656.4 secs   av.it.:  18.2
      thresh= 4.544E-10 alpha_mix =  0.700 |ddv_scf|^2 =  5.746E-18

      iter #  12 total cpu time :   663.5 secs   av.it.:  16.8
      thresh= 2.397E-10 alpha_mix =  0.700 |ddv_scf|^2 =  1.650E-19

      iter #  13 total cpu time :   670.6 secs   av.it.:  16.8
      thresh= 4.062E-11 alpha_mix =  0.700 |ddv_scf|^2 =  5.060E-21

     End of self-consistent calculation

     Convergence has been achieved 


     Representation #   4 mode #   4

     Self-consistent Calculation

      iter #   1 total cpu time :   675.4 secs   av.it.:   7.9
      thresh= 1.000E-02 alpha_mix =  0.700 |ddv_scf|^2 =  4.490E-08

      iter #   2 total cpu time :   682.5 secs   av.it.:  17.0
      thresh= 2.119E-05 alpha_mix =  0.700 |ddv_scf|^2 =  2.958E-09

      iter #   3 total cpu time :   689.8 secs   av.it.:  17.4
      thresh= 5.439E-06 alpha_mix =  0.700 |ddv_scf|^2 =  1.320E-10

      iter #   4 total cpu time :   696.9 secs   av.it.:  17.0
      thresh= 1.149E-06 alpha_mix =  0.700 |ddv_scf|^2 =  3.443E-13

      iter #   5 total cpu time :   703.9 secs   av.it.:  16.8
      thresh= 5.867E-08 alpha_mix =  0.700 |ddv_scf|^2 =  1.139E-14

      iter #   6 total cpu time :   711.0 secs   av.it.:  17.1
      thresh= 1.067E-08 alpha_mix =  0.700 |ddv_scf|^2 =  5.919E-17

      iter #   7 total cpu time :   718.1 secs   av.it.:  17.1
      thresh= 7.693E-10 alpha_mix =  0.700 |ddv_scf|^2 =  1.137E-18

      iter #   8 total cpu time :   725.3 secs   av.it.:  17.3
      thresh= 1.066E-10 alpha_mix =  0.700 |ddv_scf|^2 =  1.735E-20

      iter #   9 total cpu time :   732.5 secs   av.it.:  17.4
      thresh= 1.317E-11 alpha_mix =  0.700 |ddv_scf|^2 =  5.099E-22

     End of self-consistent calculation

     Convergence has been achieved 


     Representation #   5 mode #   5

     Self-consistent Calculation

      iter #   1 total cpu time :   737.3 secs   av.it.:   8.1
      thresh= 1.000E-02 alpha_mix =  0.700 |ddv_scf|^2 =  6.193E-08

      iter #   2 total cpu time :   744.7 secs   av.it.:  17.6
      thresh= 2.489E-05 alpha_mix =  0.700 |ddv_scf|^2 =  5.500E-09

      iter #   3 total cpu time :   752.2 secs   av.it.:  18.3
      thresh= 7.416E-06 alpha_mix =  0.700 |ddv_scf|^2 =  2.676E-10

      iter #   4 total cpu time :   759.5 secs   av.it.:  17.5
      thresh= 1.636E-06 alpha_mix =  0.700 |ddv_scf|^2 =  9.162E-13

      iter #   5 total cpu time :   767.0 secs   av.it.:  18.4
      thresh= 9.572E-08 alpha_mix =  0.700 |ddv_scf|^2 =  4.587E-14

      iter #   6 total cpu time :   774.5 secs   av.it.:  18.2
      thresh= 2.142E-08 alpha_mix =  0.700 |ddv_scf|^2 =  3.281E-16

      iter #   7 total cpu time :   782.0 secs   av.it.:  18.0
      thresh= 1.811E-09 alpha_mix =  0.700 |ddv_scf|^2 =  1.247E-17

      iter #   8 total cpu time :   789.5 secs   av.it.:  18.2
      thresh= 3.532E-10 alpha_mix =  0.700 |ddv_scf|^2 =  3.456E-19

      iter #   9 total cpu time :   797.1 secs   av.it.:  18.4
      thresh= 5.879E-11 alpha_mix =  0.700 |ddv_scf|^2 =  1.125E-20

      iter #  10 total cpu time :   804.7 secs   av.it.:  18.5
      thresh= 1.061E-11 alpha_mix =  0.700 |ddv_scf|^2 =  8.819E-22

     End of self-consistent calculation

     Convergence has been achieved 


     Representation #   6 mode #   6

     Self-consistent Calculation

      iter #   1 total cpu time :   810.4 secs   av.it.:  10.9
      thresh= 1.000E-02 alpha_mix =  0.700 |ddv_scf|^2 =  1.062E-06

      iter #   2 total cpu time :   817.8 secs   av.it.:  17.8
      thresh= 1.031E-04 alpha_mix =  0.700 |ddv_scf|^2 =  6.930E-08

      iter #   3 total cpu time :   825.3 secs   av.it.:  18.1
      thresh= 2.632E-05 alpha_mix =  0.700 |ddv_scf|^2 =  2.226E-09

      iter #   4 total cpu time :   832.6 secs   av.it.:  17.8
      thresh= 4.718E-06 alpha_mix =  0.700 |ddv_scf|^2 =  9.888E-11

      iter #   5 total cpu time :   840.1 secs   av.it.:  18.1
      thresh= 9.944E-07 alpha_mix =  0.700 |ddv_scf|^2 =  8.072E-13

      iter #   6 total cpu time :   847.7 secs   av.it.:  18.5
      thresh= 8.985E-08 alpha_mix =  0.700 |ddv_scf|^2 =  1.381E-15

      iter #   7 total cpu time :   855.1 secs   av.it.:  18.0
      thresh= 3.717E-09 alpha_mix =  0.700 |ddv_scf|^2 =  8.993E-17

      iter #   8 total cpu time :   862.7 secs   av.it.:  18.3
      thresh= 9.483E-10 alpha_mix =  0.700 |ddv_scf|^2 =  3.912E-19

      iter #   9 total cpu time :   870.0 secs   av.it.:  17.8
      thresh= 6.254E-11 alpha_mix =  0.700 |ddv_scf|^2 =  1.783E-20

      iter #  10 total cpu time :   877.4 secs   av.it.:  17.6
      thresh= 1.335E-11 alpha_mix =  0.700 |ddv_scf|^2 =  3.166E-22

     End of self-consistent calculation

     Convergence has been achieved 


     Representation #   7 mode #   7

     Self-consistent Calculation

      iter #   1 total cpu time :   882.5 secs   av.it.:   8.7
      thresh= 1.000E-02 alpha_mix =  0.700 |ddv_scf|^2 =  1.489E-05

      iter #   2 total cpu time :   889.2 secs   av.it.:  15.6
      thresh= 3.859E-04 alpha_mix =  0.700 |ddv_scf|^2 =  2.081E-04

      iter #   3 total cpu time :   895.2 secs   av.it.:  13.7
      thresh= 1.443E-03 alpha_mix =  0.700 |ddv_scf|^2 =  1.310E-06

      iter #   4 total cpu time :   901.6 secs   av.it.:  15.1
      thresh= 1.144E-04 alpha_mix =  0.700 |ddv_scf|^2 =  1.305E-09

      iter #   5 total cpu time :   908.6 secs   av.it.:  16.7
      thresh= 3.612E-06 alpha_mix =  0.700 |ddv_scf|^2 =  1.256E-10

      iter #   6 total cpu time :   915.4 secs   av.it.:  16.3
      thresh= 1.121E-06 alpha_mix =  0.700 |ddv_scf|^2 =  2.638E-12

      iter #   7 total cpu time :   922.6 secs   av.it.:  17.2
      thresh= 1.624E-07 alpha_mix =  0.700 |ddv_scf|^2 =  2.573E-13

      iter #   8 total cpu time :   929.2 secs   av.it.:  15.5
      thresh= 5.073E-08 alpha_mix =  0.700 |ddv_scf|^2 =  4.432E-15

      iter #   9 total cpu time :   936.0 secs   av.it.:  15.9
      thresh= 6.657E-09 alpha_mix =  0.700 |ddv_scf|^2 =  1.377E-16

      iter #  10 total cpu time :   943.0 secs   av.it.:  16.8
      thresh= 1.173E-09 alpha_mix =  0.700 |ddv_scf|^2 =  1.082E-16

      iter #  11 total cpu time :   949.4 secs   av.it.:  14.9
      thresh= 1.040E-09 alpha_mix =  0.700 |ddv_scf|^2 =  1.691E-18

      iter #  12 total cpu time :   956.3 secs   av.it.:  16.5
      thresh= 1.300E-10 alpha_mix =  0.700 |ddv_scf|^2 =  1.475E-19

      iter #  13 total cpu time :   963.0 secs   av.it.:  15.9
      thresh= 3.840E-11 alpha_mix =  0.700 |ddv_scf|^2 =  3.882E-21

     End of self-consistent calculation

     Convergence has been achieved 


     Representation #   8 mode #   8

     Self-consistent Calculation

      iter #   1 total cpu time :   969.2 secs   av.it.:  12.1
      thresh= 1.000E-02 alpha_mix =  0.700 |ddv_scf|^2 =  2.893E-04

      iter #   2 total cpu time :   976.0 secs   av.it.:  16.3
      thresh= 1.701E-03 alpha_mix =  0.700 |ddv_scf|^2 =  5.140E-03

      iter #   3 total cpu time :   982.0 secs   av.it.:  13.7
      thresh= 7.170E-03 alpha_mix =  0.700 |ddv_scf|^2 =  4.654E-07

      iter #   4 total cpu time :   989.1 secs   av.it.:  17.0
      thresh= 6.822E-05 alpha_mix =  0.700 |ddv_scf|^2 =  1.226E-07

      iter #   5 total cpu time :   995.7 secs   av.it.:  15.7
      thresh= 3.502E-05 alpha_mix =  0.700 |ddv_scf|^2 =  1.176E-08

      iter #   6 total cpu time :  1002.2 secs   av.it.:  15.1
      thresh= 1.084E-05 alpha_mix =  0.700 |ddv_scf|^2 =  1.049E-09

      iter #   7 total cpu time :  1008.6 secs   av.it.:  14.8
      thresh= 3.239E-06 alpha_mix =  0.700 |ddv_scf|^2 =  7.638E-14

      iter #   8 total cpu time :  1015.7 secs   av.it.:  17.2
      thresh= 2.764E-08 alpha_mix =  0.700 |ddv_scf|^2 =  2.522E-15

      iter #   9 total cpu time :  1022.7 secs   av.it.:  16.7
      thresh= 5.022E-09 alpha_mix =  0.700 |ddv_scf|^2 =  1.010E-15

      iter #  10 total cpu time :  1028.9 secs   av.it.:  14.5
      thresh= 3.178E-09 alpha_mix =  0.700 |ddv_scf|^2 =  6.214E-18

      iter #  11 total cpu time :  1035.5 secs   av.it.:  15.8
      thresh= 2.493E-10 alpha_mix =  0.700 |ddv_scf|^2 =  2.921E-19

      iter #  12 total cpu time :  1042.1 secs   av.it.:  15.5
      thresh= 5.404E-11 alpha_mix =  0.700 |ddv_scf|^2 =  5.039E-21

     End of self-consistent calculation

     Convergence has been achieved 


     Representation #   9 mode #   9

     Self-consistent Calculation

      iter #   1 total cpu time :  1047.0 secs   av.it.:   8.1
      thresh= 1.000E-02 alpha_mix =  0.700 |ddv_scf|^2 =  2.663E-06

      iter #   2 total cpu time :  1053.8 secs   av.it.:  16.1
      thresh= 1.632E-04 alpha_mix =  0.700 |ddv_scf|^2 =  3.667E-05

      iter #   3 total cpu time :  1059.8 secs   av.it.:  13.8
      thresh= 6.056E-04 alpha_mix =  0.700 |ddv_scf|^2 =  2.504E-07

      iter #   4 total cpu time :  1066.3 secs   av.it.:  15.3
      thresh= 5.004E-05 alpha_mix =  0.700 |ddv_scf|^2 =  1.205E-09

      iter #   5 total cpu time :  1073.4 secs   av.it.:  16.9
      thresh= 3.472E-06 alpha_mix =  0.700 |ddv_scf|^2 =  5.971E-11

      iter #   6 total cpu time :  1080.6 secs   av.it.:  17.3
      thresh= 7.728E-07 alpha_mix =  0.700 |ddv_scf|^2 =  4.031E-12

      iter #   7 total cpu time :  1087.4 secs   av.it.:  16.3
      thresh= 2.008E-07 alpha_mix =  0.700 |ddv_scf|^2 =  3.347E-14

      iter #   8 total cpu time :  1094.4 secs   av.it.:  16.8
      thresh= 1.830E-08 alpha_mix =  0.700 |ddv_scf|^2 =  7.645E-16

      iter #   9 total cpu time :  1101.5 secs   av.it.:  17.0
      thresh= 2.765E-09 alpha_mix =  0.700 |ddv_scf|^2 =  1.796E-17

      iter #  10 total cpu time :  1108.9 secs   av.it.:  17.6
      thresh= 4.238E-10 alpha_mix =  0.700 |ddv_scf|^2 =  6.362E-18

      iter #  11 total cpu time :  1115.7 secs   av.it.:  16.4
      thresh= 2.522E-10 alpha_mix =  0.700 |ddv_scf|^2 =  1.524E-18

      iter #  12 total cpu time :  1122.2 secs   av.it.:  15.2
      thresh= 1.234E-10 alpha_mix =  0.700 |ddv_scf|^2 =  2.482E-20

      iter #  13 total cpu time :  1129.5 secs   av.it.:  17.3
      thresh= 1.576E-11 alpha_mix =  0.700 |ddv_scf|^2 =  6.915E-21

     End of self-consistent calculation

     Convergence has been achieved 
 
     Number of q in the star =    1
     List of q in the star:
          1   0.000000000   0.000000000   0.000000000

          Dielectric constant in cartesian axis 

          (       8.708581753       0.000000000       0.000000000 )
          (       0.000000000       8.704066817       0.000000000 )
          (       0.000000000       0.000000000       1.827152173 )

          Effective charges (d Force / dE) in cartesian axis

           atom      1   Mo 
      Ex  (       -1.00542        0.00000        0.00000 )
      Ey  (        0.00000       -0.99694        0.00000 )
      Ez  (        0.00000        0.00000       -0.11246 )
           atom      2   S  
      Ex  (        0.50574        0.00000        0.00000 )
      Ey  (        0.00000        0.50488       -0.00024 )
      Ez  (        0.00000        0.00001        0.05480 )
           atom      3   S  
      Ex  (        0.50574        0.00000        0.00000 )
      Ey  (        0.00000        0.50488        0.00024 )
      Ez  (        0.00000       -0.00001        0.05480 )

          Effective charges (d P / du) in cartesian axis 

           atom      1   Mo 
      Px  (       -1.00589        0.00000        0.00000 )
      Py  (        0.00000       -1.00726        0.00000 )
      Pz  (        0.00000        0.00000       -0.11247 )
           atom      2   S  
      Px  (        0.50579        0.00000        0.00000 )
      Py  (        0.00000        0.50647       -0.00024 )
      Pz  (        0.00000        0.00001        0.05484 )
           atom      3   S  
      Px  (        0.50579        0.00000        0.00000 )
      Py  (        0.00000        0.50647        0.00024 )
      Pz  (        0.00000       -0.00001        0.05484 )

     Diagonalizing the dynamical matrix

     q = (    0.000000000   0.000000000   0.000000000 ) 

 **************************************************************************
     freq (    1) =       0.333200 [THz] =      11.114339 [cm-1]
     freq (    2) =       0.334651 [THz] =      11.162765 [cm-1]
     freq (    3) =       0.369461 [THz] =      12.323894 [cm-1]
     freq (    4) =       8.273559 [THz] =     275.976226 [cm-1]
     freq (    5) =       8.274018 [THz] =     275.991529 [cm-1]
     freq (    6) =      11.198222 [THz] =     373.532489 [cm-1]
     freq (    7) =      11.198730 [THz] =     373.549435 [cm-1]
     freq (    8) =      11.864699 [THz] =     395.763744 [cm-1]
     freq (    9) =      13.736567 [THz] =     458.202559 [cm-1]
 **************************************************************************

     Mode symmetry, C_2v (mm2)  point group:

     freq (   1-   1) =         11.1  [cm-1]   --> A_1  D_1  S_1   I+R
     freq (   2-   2) =         11.2  [cm-1]   --> B_1  D_3  S_3   I+R
     freq (   3-   3) =         12.3  [cm-1]   --> B_2  D_4  S_4   I+R
     freq (   4-   4) =        276.0  [cm-1]   --> A_2  D_2  S_2   R  
     freq (   5-   5) =        276.0  [cm-1]   --> B_2  D_4  S_4   I+R
     freq (   6-   6) =        373.5  [cm-1]   --> A_1  D_1  S_1   I+R
     freq (   7-   7) =        373.5  [cm-1]   --> B_1  D_3  S_3   I+R
     freq (   8-   8) =        395.8  [cm-1]   --> A_1  D_1  S_1   I+R
     freq (   9-   9) =        458.2  [cm-1]   --> B_2  D_4  S_4   I+R

     Calculation of q =    0.0000000   0.2291202   0.0000000

     Subspace diagonalization in iterative solution of the eigenvalue problem:
     one sub-group per band group will be used
     scalapack distributed-memory algorithm (size of sub-group:  4*  4 procs)

 
     Parallelization info
     --------------------
     sticks:   dense  smooth     PW     G-vecs:    dense   smooth      PW
     Min          63      24      8                 6341     1592     290
     Max          64      25      9                 6354     1611     301
     Sum        1261     499    163               126991    32155    5929
 


     bravais-lattice index     =            0
     lattice parameter (alat)  =       5.9830  a.u.
     unit-cell volume          =     671.9051 (a.u.)^3
     number of atoms/cell      =            3
     number of atomic types    =            2
     number of electrons       =        26.00
     number of Kohn-Sham states=           13
     kinetic-energy cutoff     =      50.0000  Ry
     charge density cutoff     =     500.0000  Ry
     Exchange-correlation= PBE
                           (   1   4   3   4   0   0   0)

     celldm(1)=   5.983000  celldm(2)=   0.000000  celldm(3)=   0.000000
     celldm(4)=   0.000000  celldm(5)=   0.000000  celldm(6)=   0.000000

     crystal axes: (cart. coord. in units of alat)
               a(1) = (   1.008068   0.000000   0.000000 )  
               a(2) = (  -0.504034   0.872904   0.000000 )  
               a(3) = (   0.000000   0.000000   3.565287 )  

     reciprocal axes: (cart. coord. in units 2 pi/alat)
               b(1) = (  0.991997  0.572800  0.000000 )  
               b(2) = (  0.000000  1.145601  0.000000 )  
               b(3) = (  0.000000  0.000000  0.280482 )  


     PseudoPot. # 1 for Mo read from file:
     ../Pseudo/Mo.pbe-spn-kjpaw_psl.0.2.UPF
     MD5 check sum: 99c4efbabb9e14294ed14bd31c5e2f8a
     Pseudo is Projector augmented-wave + core cor, Zval = 14.0
     Generated using "atomic" code by A. Dal Corso  v.5.0.2 svn rev. 9415
     Shape of augmentation charge: PSQ
     Using radial grid of 1229 points,  6 beta functions with: 
                l(1) =   0
                l(2) =   0
                l(3) =   1
                l(4) =   1
                l(5) =   2
                l(6) =   2
     Q(r) pseudized with 0 coefficients 


     PseudoPot. # 2 for S  read from file:
     ../Pseudo/S.pbe-n-kjpaw_psl.0.1.UPF
     MD5 check sum: 5138ed5699b2c5d2fdac7c35a9631f5b
     Pseudo is Projector augmented-wave + core cor, Zval =  6.0
     Generated using "atomic" code by A. Dal Corso  v.5.0.2 svn rev. 9415
     Shape of augmentation charge: PSQ
     Using radial grid of 1151 points,  4 beta functions with: 
                l(1) =   0
                l(2) =   0
                l(3) =   1
                l(4) =   1
     Q(r) pseudized with 0 coefficients 


     atomic species   valence    mass     pseudopotential
        Mo            14.00    95.94000     Mo( 1.00)
        S              6.00    32.06500     S ( 1.00)

      4 Sym. Ops. (no inversion) found



   Cartesian axes

     site n.     atom                  positions (alat units)
         1           Mo  tau(   1) = (   0.0000000   0.0030498   0.0000000  )
         2           S   tau(   2) = (   0.0000000   0.5850225   0.4949137  )
         3           S   tau(   3) = (   0.0000000   0.5850225  -0.4949137  )

     number of k points=   342

     Number of k-points >= 100: set verbosity='high' to print them.

     Dense  grid:   126991 G-vectors     FFT dimensions: (  45,  45, 160)

     Smooth grid:    32155 G-vectors     FFT dimensions: (  27,  27, 100)

     Estimated max dynamical RAM per process >      24.18 MB

     Estimated total dynamical RAM >     483.53 MB

     Check: negative core charge=   -0.000001

     The potential is recalculated from file :
     ./_ph0/MoS2.save/charge-density


     negative rho (up, down):  7.751E-08 0.000E+00
     Starting wfcs are   21 atomic wfcs
     Checking if some PAW data can be deallocated... 

     Band Structure Calculation
     Davidson diagonalization with overlap

     ethr =  3.85E-11,  avg # of iterations = 21.0

     total cpu time spent up to now is       58.4 secs

     End of band structure calculation

     Number of k-points >= 100: set verbosity='high' to print the bands.

     highest occupied level (ev):     2.8100

     Writing output data file ./_ph0/MoS2.save/

                                                                                

     bravais-lattice index     =            0
     lattice parameter (alat)  =       5.9830  a.u.
     unit-cell volume          =     671.9051 (a.u.)^3
     number of atoms/cell      =            3
     number of atomic types    =            2
     kinetic-energy cut-off    =      50.0000  Ry
     charge density cut-off    =     500.0000  Ry
     convergence threshold     =      1.0E-20
     beta                      =       0.7000
     number of iterations used =            4
     Exchange-correlation= PBE
                           (   1   4   3   4   0   0   0)


     celldm(1)=    5.98300  celldm(2)=    0.00000  celldm(3)=    0.00000
     celldm(4)=    0.00000  celldm(5)=    0.00000  celldm(6)=    0.00000

     crystal axes: (cart. coord. in units of alat)
               a(1) = (  1.0081  0.0000  0.0000 )  
               a(2) = ( -0.5040  0.8729  0.0000 )  
               a(3) = (  0.0000  0.0000  3.5653 )  

     reciprocal axes: (cart. coord. in units 2 pi/alat)
               b(1) = (  0.9920  0.5728  0.0000 )  
               b(2) = (  0.0000  1.1456  0.0000 )  
               b(3) = (  0.0000  0.0000  0.2805 )  


     Atoms inside the unit cell: 

     Cartesian axes

     site n.  atom      mass           positions (alat units)
        1     Mo  95.9400   tau(    1) = (    0.00000    0.00305    0.00000  )
        2     S   32.0650   tau(    2) = (    0.00000    0.58502    0.49491  )
        3     S   32.0650   tau(    3) = (    0.00000    0.58502   -0.49491  )

     Computing dynamical matrix for 
                    q = (   0.0000000   0.2291202   0.0000000 )
 
      4 Sym.Ops. (no q -> -q+G )


     G cutoff =  453.3653  (   6351 G-vectors)     FFT grid: ( 45, 45,160)
     G cutoff =  181.3461  (   1611 G-vectors)  smooth grid: ( 27, 27,100)
     number of k points=   342

     PseudoPot. # 1 for Mo read from file:
     ../Pseudo/Mo.pbe-spn-kjpaw_psl.0.2.UPF
     MD5 check sum: 99c4efbabb9e14294ed14bd31c5e2f8a
     Pseudo is Projector augmented-wave + core cor, Zval = 14.0
     Generated using "atomic" code by A. Dal Corso  v.5.0.2 svn rev. 9415
     Shape of augmentation charge: PSQ
     Using radial grid of 1229 points,  6 beta functions with: 
                l(1) =   0
                l(2) =   0
                l(3) =   1
                l(4) =   1
                l(5) =   2
                l(6) =   2
     Q(r) pseudized with 0 coefficients 


     PseudoPot. # 2 for S  read from file:
     ../Pseudo/S.pbe-n-kjpaw_psl.0.1.UPF
     MD5 check sum: 5138ed5699b2c5d2fdac7c35a9631f5b
     Pseudo is Projector augmented-wave + core cor, Zval =  6.0
     Generated using "atomic" code by A. Dal Corso  v.5.0.2 svn rev. 9415
     Shape of augmentation charge: PSQ
     Using radial grid of 1151 points,  4 beta functions with: 
                l(1) =   0
                l(2) =   0
                l(3) =   1
                l(4) =   1
     Q(r) pseudized with 0 coefficients 


     Mode symmetry, C_2v (mm2)  point group:


     Atomic displacements:
     There are    9 irreducible representations

     Representation     1      1 modes -  To be done

     Representation     2      1 modes -  To be done

     Representation     3      1 modes -  To be done

     Representation     4      1 modes -  To be done

     Representation     5      1 modes -  To be done

     Representation     6      1 modes -  To be done

     Representation     7      1 modes -  To be done

     Representation     8      1 modes -  To be done

     Representation     9      1 modes -  To be done



     Alpha used in Ewald sum =   2.8000

     negative rho (up, down):  7.751E-08 0.000E+00
     PHONON       :  18m59.46s CPU  19m54.18s WALL



     Representation #   1 mode #   1

     Self-consistent Calculation

      iter #   1 total cpu time :  1202.9 secs   av.it.:   9.9
      thresh= 1.000E-02 alpha_mix =  0.700 |ddv_scf|^2 =  4.248E-05

      iter #   2 total cpu time :  1216.2 secs   av.it.:  16.8
      thresh= 6.518E-04 alpha_mix =  0.700 |ddv_scf|^2 =  1.672E-03

      iter #   3 total cpu time :  1227.3 secs   av.it.:  13.8
      thresh= 4.089E-03 alpha_mix =  0.700 |ddv_scf|^2 =  1.387E-05

      iter #   4 total cpu time :  1239.3 secs   av.it.:  15.1
      thresh= 3.724E-04 alpha_mix =  0.700 |ddv_scf|^2 =  5.441E-07

      iter #   5 total cpu time :  1252.0 secs   av.it.:  16.4
      thresh= 7.376E-05 alpha_mix =  0.700 |ddv_scf|^2 =  1.602E-08

      iter #   6 total cpu time :  1265.2 secs   av.it.:  17.1
      thresh= 1.266E-05 alpha_mix =  0.700 |ddv_scf|^2 =  8.609E-11

      iter #   7 total cpu time :  1278.7 secs   av.it.:  17.5
      thresh= 9.278E-07 alpha_mix =  0.700 |ddv_scf|^2 =  6.769E-10

      iter #   8 total cpu time :  1291.2 secs   av.it.:  15.9
      thresh= 2.602E-06 alpha_mix =  0.700 |ddv_scf|^2 =  6.132E-10

      iter #   9 total cpu time :  1303.1 secs   av.it.:  15.1
      thresh= 2.476E-06 alpha_mix =  0.700 |ddv_scf|^2 =  1.316E-11

      iter #  10 total cpu time :  1315.8 secs   av.it.:  16.3
      thresh= 3.628E-07 alpha_mix =  0.700 |ddv_scf|^2 =  2.779E-12

      iter #  11 total cpu time :  1328.4 secs   av.it.:  16.1
      thresh= 1.667E-07 alpha_mix =  0.700 |ddv_scf|^2 =  1.413E-13

      iter #  12 total cpu time :  1341.6 secs   av.it.:  17.2
      thresh= 3.759E-08 alpha_mix =  0.700 |ddv_scf|^2 =  9.355E-14

      iter #  13 total cpu time :  1354.0 secs   av.it.:  15.8
      thresh= 3.059E-08 alpha_mix =  0.700 |ddv_scf|^2 =  3.121E-14

      iter #  14 total cpu time :  1366.9 secs   av.it.:  16.8
      thresh= 1.767E-08 alpha_mix =  0.700 |ddv_scf|^2 =  6.835E-15

      iter #  15 total cpu time :  1379.8 secs   av.it.:  16.6
      thresh= 8.267E-09 alpha_mix =  0.700 |ddv_scf|^2 =  8.083E-16

      iter #  16 total cpu time :  1392.6 secs   av.it.:  16.5
      thresh= 2.843E-09 alpha_mix =  0.700 |ddv_scf|^2 =  7.274E-17

      iter #  17 total cpu time :  1406.2 secs   av.it.:  17.7
      thresh= 8.529E-10 alpha_mix =  0.700 |ddv_scf|^2 =  6.509E-17

      iter #  18 total cpu time :  1418.7 secs   av.it.:  16.1
      thresh= 8.068E-10 alpha_mix =  0.700 |ddv_scf|^2 =  6.647E-18

      iter #  19 total cpu time :  1432.6 secs   av.it.:  17.9
      thresh= 2.578E-10 alpha_mix =  0.700 |ddv_scf|^2 =  1.369E-17

      iter #  20 total cpu time :  1444.6 secs   av.it.:  15.3
      thresh= 3.700E-10 alpha_mix =  0.700 |ddv_scf|^2 =  1.225E-18

      iter #  21 total cpu time :  1458.2 secs   av.it.:  17.7
      thresh= 1.107E-10 alpha_mix =  0.700 |ddv_scf|^2 =  3.409E-18

      iter #  22 total cpu time :  1470.2 secs   av.it.:  15.3
      thresh= 1.846E-10 alpha_mix =  0.700 |ddv_scf|^2 =  8.460E-20

      iter #  23 total cpu time :  1483.0 secs   av.it.:  16.4
      thresh= 2.909E-11 alpha_mix =  0.700 |ddv_scf|^2 =  2.870E-20

      iter #  24 total cpu time :  1496.0 secs   av.it.:  16.8
      thresh= 1.694E-11 alpha_mix =  0.700 |ddv_scf|^2 =  3.436E-20

      iter #  25 total cpu time :  1508.4 secs   av.it.:  15.9
      thresh= 1.854E-11 alpha_mix =  0.700 |ddv_scf|^2 =  3.066E-21

     End of self-consistent calculation

     Convergence has been achieved 


     Representation #   2 mode #   2

     Self-consistent Calculation

      iter #   1 total cpu time :  1517.4 secs   av.it.:  10.0
      thresh= 1.000E-02 alpha_mix =  0.700 |ddv_scf|^2 =  1.148E-04

      iter #   2 total cpu time :  1530.6 secs   av.it.:  16.9
      thresh= 1.072E-03 alpha_mix =  0.700 |ddv_scf|^2 =  5.588E-03

      iter #   3 total cpu time :  1541.6 secs   av.it.:  13.8
      thresh= 7.475E-03 alpha_mix =  0.700 |ddv_scf|^2 =  2.445E-06

      iter #   4 total cpu time :  1554.2 secs   av.it.:  16.0
      thresh= 1.563E-04 alpha_mix =  0.700 |ddv_scf|^2 =  8.043E-07

      iter #   5 total cpu time :  1566.6 secs   av.it.:  16.0
      thresh= 8.968E-05 alpha_mix =  0.700 |ddv_scf|^2 =  1.378E-08

      iter #   6 total cpu time :  1579.8 secs   av.it.:  17.1
      thresh= 1.174E-05 alpha_mix =  0.700 |ddv_scf|^2 =  2.285E-10

      iter #   7 total cpu time :  1593.5 secs   av.it.:  17.9
      thresh= 1.512E-06 alpha_mix =  0.700 |ddv_scf|^2 =  2.486E-09

      iter #   8 total cpu time :  1605.5 secs   av.it.:  15.1
      thresh= 4.986E-06 alpha_mix =  0.700 |ddv_scf|^2 =  6.070E-10

      iter #   9 total cpu time :  1617.6 secs   av.it.:  15.4
      thresh= 2.464E-06 alpha_mix =  0.700 |ddv_scf|^2 =  3.635E-11

      iter #  10 total cpu time :  1630.2 secs   av.it.:  16.1
      thresh= 6.029E-07 alpha_mix =  0.700 |ddv_scf|^2 =  6.514E-12

      iter #  11 total cpu time :  1642.9 secs   av.it.:  16.3
      thresh= 2.552E-07 alpha_mix =  0.700 |ddv_scf|^2 =  5.799E-14

      iter #  12 total cpu time :  1657.0 secs   av.it.:  18.6
      thresh= 2.408E-08 alpha_mix =  0.700 |ddv_scf|^2 =  1.170E-13

      iter #  13 total cpu time :  1670.1 secs   av.it.:  16.9
      thresh= 3.420E-08 alpha_mix =  0.700 |ddv_scf|^2 =  2.819E-14

      iter #  14 total cpu time :  1682.8 secs   av.it.:  16.2
      thresh= 1.679E-08 alpha_mix =  0.700 |ddv_scf|^2 =  1.144E-15

      iter #  15 total cpu time :  1696.8 secs   av.it.:  18.4
      thresh= 3.382E-09 alpha_mix =  0.700 |ddv_scf|^2 =  4.114E-15

      iter #  16 total cpu time :  1708.7 secs   av.it.:  15.1
      thresh= 6.414E-09 alpha_mix =  0.700 |ddv_scf|^2 =  2.288E-16

      iter #  17 total cpu time :  1721.6 secs   av.it.:  16.6
      thresh= 1.513E-09 alpha_mix =  0.700 |ddv_scf|^2 =  3.591E-17

      iter #  18 total cpu time :  1734.8 secs   av.it.:  17.0
      thresh= 5.992E-10 alpha_mix =  0.700 |ddv_scf|^2 =  1.648E-17

      iter #  19 total cpu time :  1747.1 secs   av.it.:  15.8
      thresh= 4.059E-10 alpha_mix =  0.700 |ddv_scf|^2 =  1.478E-18

      iter #  20 total cpu time :  1760.6 secs   av.it.:  17.7
      thresh= 1.216E-10 alpha_mix =  0.700 |ddv_scf|^2 =  3.281E-18

      iter #  21 total cpu time :  1772.6 secs   av.it.:  15.1
      thresh= 1.811E-10 alpha_mix =  0.700 |ddv_scf|^2 =  4.141E-19

      iter #  22 total cpu time :  1785.9 secs   av.it.:  17.2
      thresh= 6.435E-11 alpha_mix =  0.700 |ddv_scf|^2 =  5.302E-19

      iter #  23 total cpu time :  1798.4 secs   av.it.:  16.1
      thresh= 7.281E-11 alpha_mix =  0.700 |ddv_scf|^2 =  3.158E-21

     End of self-consistent calculation

     Convergence has been achieved 


     Representation #   3 mode #   3

     Self-consistent Calculation

      iter #   1 total cpu time :  1808.9 secs   av.it.:  12.5
      thresh= 1.000E-02 alpha_mix =  0.700 |ddv_scf|^2 =  4.522E-04

      iter #   2 total cpu time :  1822.1 secs   av.it.:  16.9
      thresh= 2.127E-03 alpha_mix =  0.700 |ddv_scf|^2 =  1.955E-02

      iter #   3 total cpu time :  1833.5 secs   av.it.:  14.4
      thresh= 1.000E-02 alpha_mix =  0.700 |ddv_scf|^2 =  3.598E-05

      iter #   4 total cpu time :  1846.2 secs   av.it.:  16.2
      thresh= 5.998E-04 alpha_mix =  0.700 |ddv_scf|^2 =  2.443E-05

      iter #   5 total cpu time :  1858.1 secs   av.it.:  15.1
      thresh= 4.942E-04 alpha_mix =  0.700 |ddv_scf|^2 =  2.920E-07

      iter #   6 total cpu time :  1871.3 secs   av.it.:  16.9
      thresh= 5.403E-05 alpha_mix =  0.700 |ddv_scf|^2 =  4.666E-09

      iter #   7 total cpu time :  1884.4 secs   av.it.:  17.0
      thresh= 6.831E-06 alpha_mix =  0.700 |ddv_scf|^2 =  1.870E-09

      iter #   8 total cpu time :  1896.9 secs   av.it.:  16.0
      thresh= 4.325E-06 alpha_mix =  0.700 |ddv_scf|^2 =  5.710E-09

      iter #   9 total cpu time :  1909.2 secs   av.it.:  15.6
      thresh= 7.557E-06 alpha_mix =  0.700 |ddv_scf|^2 =  2.224E-10

      iter #  10 total cpu time :  1921.9 secs   av.it.:  16.5
      thresh= 1.491E-06 alpha_mix =  0.700 |ddv_scf|^2 =  9.520E-12

      iter #  11 total cpu time :  1935.2 secs   av.it.:  17.2
      thresh= 3.085E-07 alpha_mix =  0.700 |ddv_scf|^2 =  1.752E-11

      iter #  12 total cpu time :  1947.4 secs   av.it.:  15.7
      thresh= 4.185E-07 alpha_mix =  0.700 |ddv_scf|^2 =  5.681E-13

      iter #  13 total cpu time :  1960.6 secs   av.it.:  17.0
      thresh= 7.537E-08 alpha_mix =  0.700 |ddv_scf|^2 =  8.893E-13

      iter #  14 total cpu time :  1972.5 secs   av.it.:  15.1
      thresh= 9.430E-08 alpha_mix =  0.700 |ddv_scf|^2 =  3.475E-14

      iter #  15 total cpu time :  1985.7 secs   av.it.:  16.9
      thresh= 1.864E-08 alpha_mix =  0.700 |ddv_scf|^2 =  4.888E-14

      iter #  16 total cpu time :  1997.7 secs   av.it.:  15.2
      thresh= 2.211E-08 alpha_mix =  0.700 |ddv_scf|^2 =  1.644E-14

      iter #  17 total cpu time :  2010.1 secs   av.it.:  15.9
      thresh= 1.282E-08 alpha_mix =  0.700 |ddv_scf|^2 =  3.062E-15

      iter #  18 total cpu time :  2022.7 secs   av.it.:  16.1
      thresh= 5.533E-09 alpha_mix =  0.700 |ddv_scf|^2 =  1.383E-15

      iter #  19 total cpu time :  2035.4 secs   av.it.:  16.2
      thresh= 3.719E-09 alpha_mix =  0.700 |ddv_scf|^2 =  9.484E-17

      iter #  20 total cpu time :  2048.3 secs   av.it.:  16.7
      thresh= 9.739E-10 alpha_mix =  0.700 |ddv_scf|^2 =  5.706E-17

      iter #  21 total cpu time :  2060.9 secs   av.it.:  16.0
      thresh= 7.554E-10 alpha_mix =  0.700 |ddv_scf|^2 =  1.055E-17

      iter #  22 total cpu time :  2073.9 secs   av.it.:  16.8
      thresh= 3.248E-10 alpha_mix =  0.700 |ddv_scf|^2 =  2.743E-18

      iter #  23 total cpu time :  2086.8 secs   av.it.:  16.6
      thresh= 1.656E-10 alpha_mix =  0.700 |ddv_scf|^2 =  8.177E-19

      iter #  24 total cpu time :  2099.8 secs   av.it.:  16.8
      thresh= 9.043E-11 alpha_mix =  0.700 |ddv_scf|^2 =  1.181E-18

      iter #  25 total cpu time :  2111.7 secs   av.it.:  15.0
      thresh= 1.087E-10 alpha_mix =  0.700 |ddv_scf|^2 =  1.038E-19

      iter #  26 total cpu time :  2124.2 secs   av.it.:  16.0
      thresh= 3.222E-11 alpha_mix =  0.700 |ddv_scf|^2 =  8.477E-20

      iter #  27 total cpu time :  2136.2 secs   av.it.:  15.1
      thresh= 2.912E-11 alpha_mix =  0.700 |ddv_scf|^2 =  1.801E-20

      iter #  28 total cpu time :  2149.2 secs   av.it.:  16.8
      thresh= 1.342E-11 alpha_mix =  0.700 |ddv_scf|^2 =  2.698E-20

      iter #  29 total cpu time :  2161.3 secs   av.it.:  15.3
      thresh= 1.643E-11 alpha_mix =  0.700 |ddv_scf|^2 =  3.272E-21

     End of self-consistent calculation

     Convergence has been achieved 


     Representation #   4 mode #   4

     Self-consistent Calculation

      iter #   1 total cpu time :  2168.9 secs   av.it.:   8.0
      thresh= 1.000E-02 alpha_mix =  0.700 |ddv_scf|^2 =  5.733E-08

      iter #   2 total cpu time :  2181.9 secs   av.it.:  16.9
      thresh= 2.394E-05 alpha_mix =  0.700 |ddv_scf|^2 =  4.404E-09

      iter #   3 total cpu time :  2194.9 secs   av.it.:  16.8
      thresh= 6.636E-06 alpha_mix =  0.700 |ddv_scf|^2 =  1.514E-10

      iter #   4 total cpu time :  2207.7 secs   av.it.:  16.6
      thresh= 1.230E-06 alpha_mix =  0.700 |ddv_scf|^2 =  4.691E-13

      iter #   5 total cpu time :  2220.5 secs   av.it.:  16.6
      thresh= 6.849E-08 alpha_mix =  0.700 |ddv_scf|^2 =  1.392E-14

      iter #   6 total cpu time :  2233.5 secs   av.it.:  16.9
      thresh= 1.180E-08 alpha_mix =  0.700 |ddv_scf|^2 =  8.030E-17

      iter #   7 total cpu time :  2246.5 secs   av.it.:  16.8
      thresh= 8.961E-10 alpha_mix =  0.700 |ddv_scf|^2 =  9.630E-19

      iter #   8 total cpu time :  2259.5 secs   av.it.:  16.8
      thresh= 9.814E-11 alpha_mix =  0.700 |ddv_scf|^2 =  2.084E-20

      iter #   9 total cpu time :  2272.8 secs   av.it.:  17.3
      thresh= 1.444E-11 alpha_mix =  0.700 |ddv_scf|^2 =  5.093E-22

     End of self-consistent calculation

     Convergence has been achieved 


     Representation #   5 mode #   5

     Self-consistent Calculation

      iter #   1 total cpu time :  2280.6 secs   av.it.:   8.5
      thresh= 1.000E-02 alpha_mix =  0.700 |ddv_scf|^2 =  8.122E-08

      iter #   2 total cpu time :  2294.1 secs   av.it.:  17.5
      thresh= 2.850E-05 alpha_mix =  0.700 |ddv_scf|^2 =  9.473E-09

      iter #   3 total cpu time :  2307.7 secs   av.it.:  17.6
      thresh= 9.733E-06 alpha_mix =  0.700 |ddv_scf|^2 =  3.151E-10

      iter #   4 total cpu time :  2320.8 secs   av.it.:  17.0
      thresh= 1.775E-06 alpha_mix =  0.700 |ddv_scf|^2 =  1.579E-12

      iter #   5 total cpu time :  2334.5 secs   av.it.:  17.8
      thresh= 1.257E-07 alpha_mix =  0.700 |ddv_scf|^2 =  6.432E-14

      iter #   6 total cpu time :  2348.2 secs   av.it.:  17.8
      thresh= 2.536E-08 alpha_mix =  0.700 |ddv_scf|^2 =  5.217E-16

      iter #   7 total cpu time :  2361.7 secs   av.it.:  17.7
      thresh= 2.284E-09 alpha_mix =  0.700 |ddv_scf|^2 =  1.699E-17

      iter #   8 total cpu time :  2375.5 secs   av.it.:  17.9
      thresh= 4.121E-10 alpha_mix =  0.700 |ddv_scf|^2 =  4.474E-19

      iter #   9 total cpu time :  2389.4 secs   av.it.:  18.2
      thresh= 6.689E-11 alpha_mix =  0.700 |ddv_scf|^2 =  9.138E-21

     End of self-consistent calculation

     Convergence has been achieved 


     Representation #   6 mode #   6

     Self-consistent Calculation

      iter #   1 total cpu time :  2398.8 secs   av.it.:  10.9
      thresh= 1.000E-02 alpha_mix =  0.700 |ddv_scf|^2 =  1.258E-06

      iter #   2 total cpu time :  2412.4 secs   av.it.:  17.7
      thresh= 1.121E-04 alpha_mix =  0.700 |ddv_scf|^2 =  1.207E-07

      iter #   3 total cpu time :  2426.0 secs   av.it.:  17.6
      thresh= 3.474E-05 alpha_mix =  0.700 |ddv_scf|^2 =  2.945E-09

      iter #   4 total cpu time :  2439.4 secs   av.it.:  17.5
      thresh= 5.427E-06 alpha_mix =  0.700 |ddv_scf|^2 =  1.618E-10

      iter #   5 total cpu time :  2452.8 secs   av.it.:  17.4
      thresh= 1.272E-06 alpha_mix =  0.700 |ddv_scf|^2 =  8.287E-13

      iter #   6 total cpu time :  2466.6 secs   av.it.:  18.2
      thresh= 9.103E-08 alpha_mix =  0.700 |ddv_scf|^2 =  2.260E-15

      iter #   7 total cpu time :  2480.5 secs   av.it.:  18.1
      thresh= 4.754E-09 alpha_mix =  0.700 |ddv_scf|^2 =  1.080E-16

      iter #   8 total cpu time :  2494.4 secs   av.it.:  18.3
      thresh= 1.039E-09 alpha_mix =  0.700 |ddv_scf|^2 =  1.364E-18

      iter #   9 total cpu time :  2508.4 secs   av.it.:  18.3
      thresh= 1.168E-10 alpha_mix =  0.700 |ddv_scf|^2 =  5.803E-20

      iter #  10 total cpu time :  2522.1 secs   av.it.:  18.0
      thresh= 2.409E-11 alpha_mix =  0.700 |ddv_scf|^2 =  3.108E-21

     End of self-consistent calculation

     Convergence has been achieved 


     Representation #   7 mode #   7

     Self-consistent Calculation

      iter #   1 total cpu time :  2530.3 secs   av.it.:   8.9
      thresh= 1.000E-02 alpha_mix =  0.700 |ddv_scf|^2 =  5.950E-06

      iter #   2 total cpu time :  2543.1 secs   av.it.:  16.5
      thresh= 2.439E-04 alpha_mix =  0.700 |ddv_scf|^2 =  3.674E-05

      iter #   3 total cpu time :  2554.8 secs   av.it.:  14.9
      thresh= 6.062E-04 alpha_mix =  0.700 |ddv_scf|^2 =  2.305E-07

      iter #   4 total cpu time :  2567.1 secs   av.it.:  15.9
      thresh= 4.801E-05 alpha_mix =  0.700 |ddv_scf|^2 =  7.326E-10

      iter #   5 total cpu time :  2579.9 secs   av.it.:  16.6
      thresh= 2.707E-06 alpha_mix =  0.700 |ddv_scf|^2 =  7.993E-11

      iter #   6 total cpu time :  2592.5 secs   av.it.:  16.3
      thresh= 8.940E-07 alpha_mix =  0.700 |ddv_scf|^2 =  9.903E-13

      iter #   7 total cpu time :  2606.2 secs   av.it.:  18.0
      thresh= 9.951E-08 alpha_mix =  0.700 |ddv_scf|^2 =  2.465E-13

      iter #   8 total cpu time :  2618.9 secs   av.it.:  16.2
      thresh= 4.965E-08 alpha_mix =  0.700 |ddv_scf|^2 =  4.749E-14

      iter #   9 total cpu time :  2631.3 secs   av.it.:  15.9
      thresh= 2.179E-08 alpha_mix =  0.700 |ddv_scf|^2 =  1.132E-14

      iter #  10 total cpu time :  2644.4 secs   av.it.:  17.0
      thresh= 1.064E-08 alpha_mix =  0.700 |ddv_scf|^2 =  4.997E-15

      iter #  11 total cpu time :  2656.9 secs   av.it.:  16.2
      thresh= 7.069E-09 alpha_mix =  0.700 |ddv_scf|^2 =  3.362E-17

      iter #  12 total cpu time :  2669.8 secs   av.it.:  16.7
      thresh= 5.798E-10 alpha_mix =  0.700 |ddv_scf|^2 =  2.832E-19

      iter #  13 total cpu time :  2683.7 secs   av.it.:  18.1
      thresh= 5.322E-11 alpha_mix =  0.700 |ddv_scf|^2 =  4.213E-20

      iter #  14 total cpu time :  2697.4 secs   av.it.:  17.9
      thresh= 2.053E-11 alpha_mix =  0.700 |ddv_scf|^2 =  1.151E-20

      iter #  15 total cpu time :  2710.5 secs   av.it.:  17.0
      thresh= 1.073E-11 alpha_mix =  0.700 |ddv_scf|^2 =  4.052E-21

     End of self-consistent calculation

     Convergence has been achieved 


     Representation #   8 mode #   8

     Self-consistent Calculation

      iter #   1 total cpu time :  2720.6 secs   av.it.:  12.1
      thresh= 1.000E-02 alpha_mix =  0.700 |ddv_scf|^2 =  5.812E-05

      iter #   2 total cpu time :  2733.8 secs   av.it.:  17.1
      thresh= 7.624E-04 alpha_mix =  0.700 |ddv_scf|^2 =  4.468E-04

      iter #   3 total cpu time :  2745.5 secs   av.it.:  14.9
      thresh= 2.114E-03 alpha_mix =  0.700 |ddv_scf|^2 =  1.669E-07

      iter #   4 total cpu time :  2758.7 secs   av.it.:  17.2
      thresh= 4.085E-05 alpha_mix =  0.700 |ddv_scf|^2 =  6.531E-09

      iter #   5 total cpu time :  2771.7 secs   av.it.:  16.9
      thresh= 8.082E-06 alpha_mix =  0.700 |ddv_scf|^2 =  9.817E-10

      iter #   6 total cpu time :  2784.4 secs   av.it.:  16.4
      thresh= 3.133E-06 alpha_mix =  0.700 |ddv_scf|^2 =  2.715E-11

      iter #   7 total cpu time :  2797.0 secs   av.it.:  16.2
      thresh= 5.211E-07 alpha_mix =  0.700 |ddv_scf|^2 =  8.648E-14

      iter #   8 total cpu time :  2810.7 secs   av.it.:  18.1
      thresh= 2.941E-08 alpha_mix =  0.700 |ddv_scf|^2 =  1.653E-14

      iter #   9 total cpu time :  2824.2 secs   av.it.:  17.5
      thresh= 1.286E-08 alpha_mix =  0.700 |ddv_scf|^2 =  6.726E-15

      iter #  10 total cpu time :  2836.8 secs   av.it.:  16.2
      thresh= 8.201E-09 alpha_mix =  0.700 |ddv_scf|^2 =  2.082E-15

      iter #  11 total cpu time :  2849.3 secs   av.it.:  16.2
      thresh= 4.562E-09 alpha_mix =  0.700 |ddv_scf|^2 =  4.355E-17

      iter #  12 total cpu time :  2862.3 secs   av.it.:  16.9
      thresh= 6.599E-10 alpha_mix =  0.700 |ddv_scf|^2 =  1.014E-18

      iter #  13 total cpu time :  2875.5 secs   av.it.:  17.2
      thresh= 1.007E-10 alpha_mix =  0.700 |ddv_scf|^2 =  9.815E-20

      iter #  14 total cpu time :  2888.7 secs   av.it.:  17.2
      thresh= 3.133E-11 alpha_mix =  0.700 |ddv_scf|^2 =  6.658E-21

     End of self-consistent calculation

     Convergence has been achieved 


     Representation #   9 mode #   9

     Self-consistent Calculation

      iter #   1 total cpu time :  2896.9 secs   av.it.:   9.0
      thresh= 1.000E-02 alpha_mix =  0.700 |ddv_scf|^2 =  1.720E-06

      iter #   2 total cpu time :  2910.1 secs   av.it.:  17.1
      thresh= 1.312E-04 alpha_mix =  0.700 |ddv_scf|^2 =  1.226E-05

      iter #   3 total cpu time :  2921.8 secs   av.it.:  14.9
      thresh= 3.502E-04 alpha_mix =  0.700 |ddv_scf|^2 =  1.860E-08

      iter #   4 total cpu time :  2934.9 secs   av.it.:  17.0
      thresh= 1.364E-05 alpha_mix =  0.700 |ddv_scf|^2 =  5.023E-10

      iter #   5 total cpu time :  2947.9 secs   av.it.:  16.9
      thresh= 2.241E-06 alpha_mix =  0.700 |ddv_scf|^2 =  1.024E-11

      iter #   6 total cpu time :  2961.3 secs   av.it.:  17.4
      thresh= 3.200E-07 alpha_mix =  0.700 |ddv_scf|^2 =  1.873E-12

      iter #   7 total cpu time :  2974.5 secs   av.it.:  17.1
      thresh= 1.369E-07 alpha_mix =  0.700 |ddv_scf|^2 =  4.659E-14

      iter #   8 total cpu time :  2987.9 secs   av.it.:  17.5
      thresh= 2.158E-08 alpha_mix =  0.700 |ddv_scf|^2 =  5.089E-14

      iter #   9 total cpu time :  3000.2 secs   av.it.:  15.8
      thresh= 2.256E-08 alpha_mix =  0.700 |ddv_scf|^2 =  1.478E-14

      iter #  10 total cpu time :  3012.7 secs   av.it.:  16.1
      thresh= 1.216E-08 alpha_mix =  0.700 |ddv_scf|^2 =  1.625E-15

      iter #  11 total cpu time :  3025.5 secs   av.it.:  16.5
      thresh= 4.031E-09 alpha_mix =  0.700 |ddv_scf|^2 =  2.914E-17

      iter #  12 total cpu time :  3038.6 secs   av.it.:  17.0
      thresh= 5.398E-10 alpha_mix =  0.700 |ddv_scf|^2 =  3.341E-18

      iter #  13 total cpu time :  3051.7 secs   av.it.:  17.0
      thresh= 1.828E-10 alpha_mix =  0.700 |ddv_scf|^2 =  8.069E-20

      iter #  14 total cpu time :  3065.0 secs   av.it.:  17.4
      thresh= 2.841E-11 alpha_mix =  0.700 |ddv_scf|^2 =  1.998E-20

      iter #  15 total cpu time :  3078.1 secs   av.it.:  17.0
      thresh= 1.414E-11 alpha_mix =  0.700 |ddv_scf|^2 =  9.252E-22

     End of self-consistent calculation

     Convergence has been achieved 
 
     Number of q in the star =    1
     List of q in the star:
          1   0.000000000   0.229120170   0.000000000
     In addition there is the -q list: 
          1   0.000000000  -0.229120170   0.000000000

     Diagonalizing the dynamical matrix

     q = (    0.000000000   0.229120170   0.000000000 ) 

 **************************************************************************
     freq (    1) =       1.817137 [THz] =      60.613175 [cm-1]
     freq (    2) =       2.740983 [THz] =      91.429360 [cm-1]
     freq (    3) =       4.384092 [THz] =     146.237583 [cm-1]
     freq (    4) =       8.520277 [THz] =     284.205834 [cm-1]
     freq (    5) =       9.132357 [THz] =     304.622655 [cm-1]
     freq (    6) =      10.650164 [THz] =     355.251221 [cm-1]
     freq (    7) =      11.039353 [THz] =     368.233177 [cm-1]
     freq (    8) =      11.957318 [THz] =     398.853194 [cm-1]
     freq (    9) =      12.809772 [THz] =     427.287989 [cm-1]
 **************************************************************************

     Mode symmetry, C_2v (mm2)  point group:

     freq (   1-   1) =         60.6  [cm-1]   --> B_2  D_4  S_4      
     freq (   2-   2) =         91.4  [cm-1]   --> B_1  D_3  S_3      
     freq (   3-   3) =        146.2  [cm-1]   --> A_1  D_1  S_1      
     freq (   4-   4) =        284.2  [cm-1]   --> A_2  D_2  S_2      
     freq (   5-   5) =        304.6  [cm-1]   --> B_2  D_4  S_4      
     freq (   6-   6) =        355.3  [cm-1]   --> A_1  D_1  S_1      
     freq (   7-   7) =        368.2  [cm-1]   --> B_1  D_3  S_3      
     freq (   8-   8) =        398.9  [cm-1]   --> A_1  D_1  S_1      
     freq (   9-   9) =        427.3  [cm-1]   --> B_2  D_4  S_4      

     Calculation of q =    0.0000000   0.4582403   0.0000000
 
     Parallelization info
     --------------------
     sticks:   dense  smooth     PW     G-vecs:    dense   smooth      PW
     Min          63      24      8                 6341     1592     310
     Max          64      25      9                 6354     1611     327
     Sum        1261     499    163               126991    32155    6303
 


     bravais-lattice index     =            0
     lattice parameter (alat)  =       5.9830  a.u.
     unit-cell volume          =     671.9051 (a.u.)^3
     number of atoms/cell      =            3
     number of atomic types    =            2
     number of electrons       =        26.00
     number of Kohn-Sham states=           13
     kinetic-energy cutoff     =      50.0000  Ry
     charge density cutoff     =     500.0000  Ry
     Exchange-correlation= PBE
                           (   1   4   3   4   0   0   0)

     celldm(1)=   5.983000  celldm(2)=   0.000000  celldm(3)=   0.000000
     celldm(4)=   0.000000  celldm(5)=   0.000000  celldm(6)=   0.000000

     crystal axes: (cart. coord. in units of alat)
               a(1) = (   1.008068   0.000000   0.000000 )  
               a(2) = (  -0.504034   0.872904   0.000000 )  
               a(3) = (   0.000000   0.000000   3.565287 )  

     reciprocal axes: (cart. coord. in units 2 pi/alat)
               b(1) = (  0.991997  0.572800  0.000000 )  
               b(2) = (  0.000000  1.145601  0.000000 )  
               b(3) = (  0.000000  0.000000  0.280482 )  


     PseudoPot. # 1 for Mo read from file:
     ../Pseudo/Mo.pbe-spn-kjpaw_psl.0.2.UPF
     MD5 check sum: 99c4efbabb9e14294ed14bd31c5e2f8a
     Pseudo is Projector augmented-wave + core cor, Zval = 14.0
     Generated using "atomic" code by A. Dal Corso  v.5.0.2 svn rev. 9415
     Shape of augmentation charge: PSQ
     Using radial grid of 1229 points,  6 beta functions with: 
                l(1) =   0
                l(2) =   0
                l(3) =   1
                l(4) =   1
                l(5) =   2
                l(6) =   2
     Q(r) pseudized with 0 coefficients 


     PseudoPot. # 2 for S  read from file:
     ../Pseudo/S.pbe-n-kjpaw_psl.0.1.UPF
     MD5 check sum: 5138ed5699b2c5d2fdac7c35a9631f5b
     Pseudo is Projector augmented-wave + core cor, Zval =  6.0
     Generated using "atomic" code by A. Dal Corso  v.5.0.2 svn rev. 9415
     Shape of augmentation charge: PSQ
     Using radial grid of 1151 points,  4 beta functions with: 
                l(1) =   0
                l(2) =   0
                l(3) =   1
                l(4) =   1
     Q(r) pseudized with 0 coefficients 


     atomic species   valence    mass     pseudopotential
        Mo            14.00    95.94000     Mo( 1.00)
        S              6.00    32.06500     S ( 1.00)

      4 Sym. Ops. (no inversion) found



   Cartesian axes

     site n.     atom                  positions (alat units)
         1           Mo  tau(   1) = (   0.0000000   0.0030498   0.0000000  )
         2           S   tau(   2) = (   0.0000000   0.5850225   0.4949137  )
         3           S   tau(   3) = (   0.0000000   0.5850225  -0.4949137  )

     number of k points=   342

     Number of k-points >= 100: set verbosity='high' to print them.

     Dense  grid:   126991 G-vectors     FFT dimensions: (  45,  45, 160)

     Smooth grid:    32155 G-vectors     FFT dimensions: (  27,  27, 100)

     Estimated max dynamical RAM per process >      24.21 MB

     Estimated total dynamical RAM >     484.23 MB

     Check: negative core charge=   -0.000001

     The potential is recalculated from file :
     ./_ph0/MoS2.save/charge-density


     negative rho (up, down):  7.751E-08 0.000E+00
     Starting wfcs are   21 atomic wfcs
     Checking if some PAW data can be deallocated... 

     Band Structure Calculation
     Davidson diagonalization with overlap

     ethr =  3.85E-11,  avg # of iterations = 21.0

     total cpu time spent up to now is      115.7 secs

     End of band structure calculation

     Number of k-points >= 100: set verbosity='high' to print the bands.

     highest occupied level (ev):     2.8100

     Writing output data file ./_ph0/MoS2.save/

                                                                                

     bravais-lattice index     =            0
     lattice parameter (alat)  =       5.9830  a.u.
     unit-cell volume          =     671.9051 (a.u.)^3
     number of atoms/cell      =            3
     number of atomic types    =            2
     kinetic-energy cut-off    =      50.0000  Ry
     charge density cut-off    =     500.0000  Ry
     convergence threshold     =      1.0E-20
     beta                      =       0.7000
     number of iterations used =            4
     Exchange-correlation= PBE
                           (   1   4   3   4   0   0   0)


     celldm(1)=    5.98300  celldm(2)=    0.00000  celldm(3)=    0.00000
     celldm(4)=    0.00000  celldm(5)=    0.00000  celldm(6)=    0.00000

     crystal axes: (cart. coord. in units of alat)
               a(1) = (  1.0081  0.0000  0.0000 )  
               a(2) = ( -0.5040  0.8729  0.0000 )  
               a(3) = (  0.0000  0.0000  3.5653 )  

     reciprocal axes: (cart. coord. in units 2 pi/alat)
               b(1) = (  0.9920  0.5728  0.0000 )  
               b(2) = (  0.0000  1.1456  0.0000 )  
               b(3) = (  0.0000  0.0000  0.2805 )  


     Atoms inside the unit cell: 

     Cartesian axes

     site n.  atom      mass           positions (alat units)
        1     Mo  95.9400   tau(    1) = (    0.00000    0.00305    0.00000  )
        2     S   32.0650   tau(    2) = (    0.00000    0.58502    0.49491  )
        3     S   32.0650   tau(    3) = (    0.00000    0.58502   -0.49491  )

     Computing dynamical matrix for 
                    q = (   0.0000000   0.4582403   0.0000000 )
 
      4 Sym.Ops. (no q -> -q+G )


     G cutoff =  453.3653  (   6351 G-vectors)     FFT grid: ( 45, 45,160)
     G cutoff =  181.3461  (   1611 G-vectors)  smooth grid: ( 27, 27,100)
     number of k points=   342

     PseudoPot. # 1 for Mo read from file:
     ../Pseudo/Mo.pbe-spn-kjpaw_psl.0.2.UPF
     MD5 check sum: 99c4efbabb9e14294ed14bd31c5e2f8a
     Pseudo is Projector augmented-wave + core cor, Zval = 14.0
     Generated using "atomic" code by A. Dal Corso  v.5.0.2 svn rev. 9415
     Shape of augmentation charge: PSQ
     Using radial grid of 1229 points,  6 beta functions with: 
                l(1) =   0
                l(2) =   0
                l(3) =   1
                l(4) =   1
                l(5) =   2
                l(6) =   2
     Q(r) pseudized with 0 coefficients 


     PseudoPot. # 2 for S  read from file:
     ../Pseudo/S.pbe-n-kjpaw_psl.0.1.UPF
     MD5 check sum: 5138ed5699b2c5d2fdac7c35a9631f5b
     Pseudo is Projector augmented-wave + core cor, Zval =  6.0
     Generated using "atomic" code by A. Dal Corso  v.5.0.2 svn rev. 9415
     Shape of augmentation charge: PSQ
     Using radial grid of 1151 points,  4 beta functions with: 
                l(1) =   0
                l(2) =   0
                l(3) =   1
                l(4) =   1
     Q(r) pseudized with 0 coefficients 


     Mode symmetry, C_2v (mm2)  point group:


     Atomic displacements:
     There are    9 irreducible representations

     Representation     1      1 modes -  To be done

     Representation     2      1 modes -  To be done

     Representation     3      1 modes -  To be done

     Representation     4      1 modes -  To be done

     Representation     5      1 modes -  To be done

     Representation     6      1 modes -  To be done

     Representation     7      1 modes -  To be done

     Representation     8      1 modes -  To be done

     Representation     9      1 modes -  To be done



     Alpha used in Ewald sum =   2.8000

     negative rho (up, down):  7.751E-08 0.000E+00
     PHONON       :  49m54.02s CPU  52m20.97s WALL



     Representation #   1 mode #   1

     Self-consistent Calculation

      iter #   1 total cpu time :  3149.6 secs   av.it.:   9.9
      thresh= 1.000E-02 alpha_mix =  0.700 |ddv_scf|^2 =  4.489E-06

      iter #   2 total cpu time :  3163.7 secs   av.it.:  17.9
      thresh= 2.119E-04 alpha_mix =  0.700 |ddv_scf|^2 =  7.939E-05

      iter #   3 total cpu time :  3176.0 secs   av.it.:  15.7
      thresh= 8.910E-04 alpha_mix =  0.700 |ddv_scf|^2 =  3.469E-06

      iter #   4 total cpu time :  3188.9 secs   av.it.:  16.4
      thresh= 1.862E-04 alpha_mix =  0.700 |ddv_scf|^2 =  7.010E-08

      iter #   5 total cpu time :  3202.1 secs   av.it.:  16.8
      thresh= 2.648E-05 alpha_mix =  0.700 |ddv_scf|^2 =  1.349E-09

      iter #   6 total cpu time :  3215.8 secs   av.it.:  17.6
      thresh= 3.673E-06 alpha_mix =  0.700 |ddv_scf|^2 =  5.585E-11

      iter #   7 total cpu time :  3229.6 secs   av.it.:  17.9
      thresh= 7.474E-07 alpha_mix =  0.700 |ddv_scf|^2 =  2.320E-11

      iter #   8 total cpu time :  3242.8 secs   av.it.:  16.8
      thresh= 4.817E-07 alpha_mix =  0.700 |ddv_scf|^2 =  1.678E-12

      iter #   9 total cpu time :  3256.8 secs   av.it.:  18.0
      thresh= 1.295E-07 alpha_mix =  0.700 |ddv_scf|^2 =  1.244E-11

      iter #  10 total cpu time :  3269.4 secs   av.it.:  15.9
      thresh= 3.527E-07 alpha_mix =  0.700 |ddv_scf|^2 =  1.606E-12

      iter #  11 total cpu time :  3282.8 secs   av.it.:  17.1
      thresh= 1.267E-07 alpha_mix =  0.700 |ddv_scf|^2 =  5.379E-14

      iter #  12 total cpu time :  3296.7 secs   av.it.:  18.0
      thresh= 2.319E-08 alpha_mix =  0.700 |ddv_scf|^2 =  1.663E-14

      iter #  13 total cpu time :  3310.2 secs   av.it.:  17.2
      thresh= 1.290E-08 alpha_mix =  0.700 |ddv_scf|^2 =  3.456E-15

      iter #  14 total cpu time :  3323.7 secs   av.it.:  17.4
      thresh= 5.878E-09 alpha_mix =  0.700 |ddv_scf|^2 =  1.979E-16

      iter #  15 total cpu time :  3337.7 secs   av.it.:  18.0
      thresh= 1.407E-09 alpha_mix =  0.700 |ddv_scf|^2 =  1.089E-15

      iter #  16 total cpu time :  3350.3 secs   av.it.:  16.0
      thresh= 3.300E-09 alpha_mix =  0.700 |ddv_scf|^2 =  1.797E-16

      iter #  17 total cpu time :  3363.3 secs   av.it.:  16.6
      thresh= 1.341E-09 alpha_mix =  0.700 |ddv_scf|^2 =  1.135E-17

      iter #  18 total cpu time :  3377.7 secs   av.it.:  18.6
      thresh= 3.369E-10 alpha_mix =  0.700 |ddv_scf|^2 =  1.651E-17

      iter #  19 total cpu time :  3390.9 secs   av.it.:  16.8
      thresh= 4.063E-10 alpha_mix =  0.700 |ddv_scf|^2 =  3.912E-18

      iter #  20 total cpu time :  3404.5 secs   av.it.:  17.5
      thresh= 1.978E-10 alpha_mix =  0.700 |ddv_scf|^2 =  6.124E-19

      iter #  21 total cpu time :  3417.5 secs   av.it.:  16.7
      thresh= 7.826E-11 alpha_mix =  0.700 |ddv_scf|^2 =  1.654E-19

      iter #  22 total cpu time :  3431.3 secs   av.it.:  17.8
      thresh= 4.067E-11 alpha_mix =  0.700 |ddv_scf|^2 =  1.803E-19

      iter #  23 total cpu time :  3443.9 secs   av.it.:  16.0
      thresh= 4.246E-11 alpha_mix =  0.700 |ddv_scf|^2 =  7.307E-21

     End of self-consistent calculation

     Convergence has been achieved 


     Representation #   2 mode #   2

     Self-consistent Calculation

      iter #   1 total cpu time :  3452.9 secs   av.it.:   9.9
      thresh= 1.000E-02 alpha_mix =  0.700 |ddv_scf|^2 =  1.337E-05

      iter #   2 total cpu time :  3466.8 secs   av.it.:  17.8
      thresh= 3.657E-04 alpha_mix =  0.700 |ddv_scf|^2 =  3.658E-04

      iter #   3 total cpu time :  3479.0 secs   av.it.:  15.3
      thresh= 1.913E-03 alpha_mix =  0.700 |ddv_scf|^2 =  1.580E-06

      iter #   4 total cpu time :  3491.8 secs   av.it.:  16.4
      thresh= 1.257E-04 alpha_mix =  0.700 |ddv_scf|^2 =  7.373E-08

      iter #   5 total cpu time :  3505.0 secs   av.it.:  16.8
      thresh= 2.715E-05 alpha_mix =  0.700 |ddv_scf|^2 =  3.515E-09

      iter #   6 total cpu time :  3518.3 secs   av.it.:  16.9
      thresh= 5.929E-06 alpha_mix =  0.700 |ddv_scf|^2 =  5.483E-11

      iter #   7 total cpu time :  3532.3 secs   av.it.:  18.0
      thresh= 7.405E-07 alpha_mix =  0.700 |ddv_scf|^2 =  1.147E-11

      iter #   8 total cpu time :  3546.1 secs   av.it.:  17.9
      thresh= 3.386E-07 alpha_mix =  0.700 |ddv_scf|^2 =  7.717E-13

      iter #   9 total cpu time :  3560.5 secs   av.it.:  18.7
      thresh= 8.785E-08 alpha_mix =  0.700 |ddv_scf|^2 =  1.420E-11

      iter #  10 total cpu time :  3572.7 secs   av.it.:  15.4
      thresh= 3.768E-07 alpha_mix =  0.700 |ddv_scf|^2 =  1.373E-12

      iter #  11 total cpu time :  3585.6 secs   av.it.:  16.3
      thresh= 1.172E-07 alpha_mix =  0.700 |ddv_scf|^2 =  2.023E-14

      iter #  12 total cpu time :  3599.6 secs   av.it.:  18.1
      thresh= 1.422E-08 alpha_mix =  0.700 |ddv_scf|^2 =  6.830E-15

      iter #  13 total cpu time :  3613.0 secs   av.it.:  17.2
      thresh= 8.264E-09 alpha_mix =  0.700 |ddv_scf|^2 =  2.148E-15

      iter #  14 total cpu time :  3626.8 secs   av.it.:  17.8
      thresh= 4.634E-09 alpha_mix =  0.700 |ddv_scf|^2 =  9.554E-17

      iter #  15 total cpu time :  3640.8 secs   av.it.:  18.0
      thresh= 9.774E-10 alpha_mix =  0.700 |ddv_scf|^2 =  1.160E-16

      iter #  16 total cpu time :  3654.0 secs   av.it.:  16.8
      thresh= 1.077E-09 alpha_mix =  0.700 |ddv_scf|^2 =  1.624E-16

      iter #  17 total cpu time :  3666.7 secs   av.it.:  16.0
      thresh= 1.274E-09 alpha_mix =  0.700 |ddv_scf|^2 =  2.910E-18

      iter #  18 total cpu time :  3680.9 secs   av.it.:  18.5
      thresh= 1.706E-10 alpha_mix =  0.700 |ddv_scf|^2 =  5.354E-18

      iter #  19 total cpu time :  3693.6 secs   av.it.:  15.9
      thresh= 2.314E-10 alpha_mix =  0.700 |ddv_scf|^2 =  4.726E-19

      iter #  20 total cpu time :  3707.4 secs   av.it.:  17.8
      thresh= 6.874E-11 alpha_mix =  0.700 |ddv_scf|^2 =  2.168E-19

      iter #  21 total cpu time :  3720.7 secs   av.it.:  16.9
      thresh= 4.656E-11 alpha_mix =  0.700 |ddv_scf|^2 =  1.273E-20

      iter #  22 total cpu time :  3734.8 secs   av.it.:  18.4
      thresh= 1.128E-11 alpha_mix =  0.700 |ddv_scf|^2 =  3.119E-20

      iter #  23 total cpu time :  3747.5 secs   av.it.:  16.0
      thresh= 1.766E-11 alpha_mix =  0.700 |ddv_scf|^2 =  3.019E-21

     End of self-consistent calculation

     Convergence has been achieved 


     Representation #   3 mode #   3

     Self-consistent Calculation

      iter #   1 total cpu time :  3758.1 secs   av.it.:  12.4
      thresh= 1.000E-02 alpha_mix =  0.700 |ddv_scf|^2 =  4.859E-05

      iter #   2 total cpu time :  3772.1 secs   av.it.:  18.0
      thresh= 6.971E-04 alpha_mix =  0.700 |ddv_scf|^2 =  7.309E-04

      iter #   3 total cpu time :  3784.5 secs   av.it.:  15.8
      thresh= 2.703E-03 alpha_mix =  0.700 |ddv_scf|^2 =  4.975E-05

      iter #   4 total cpu time :  3797.3 secs   av.it.:  16.2
      thresh= 7.053E-04 alpha_mix =  0.700 |ddv_scf|^2 =  6.581E-07

      iter #   5 total cpu time :  3810.7 secs   av.it.:  17.0
      thresh= 8.113E-05 alpha_mix =  0.700 |ddv_scf|^2 =  1.783E-08

      iter #   6 total cpu time :  3824.3 secs   av.it.:  17.6
      thresh= 1.335E-05 alpha_mix =  0.700 |ddv_scf|^2 =  1.507E-09

      iter #   7 total cpu time :  3838.3 secs   av.it.:  17.9
      thresh= 3.882E-06 alpha_mix =  0.700 |ddv_scf|^2 =  4.350E-10

      iter #   8 total cpu time :  3851.9 secs   av.it.:  17.7
      thresh= 2.086E-06 alpha_mix =  0.700 |ddv_scf|^2 =  1.774E-10

      iter #   9 total cpu time :  3865.7 secs   av.it.:  17.8
      thresh= 1.332E-06 alpha_mix =  0.700 |ddv_scf|^2 =  7.255E-10

      iter #  10 total cpu time :  3878.3 secs   av.it.:  16.0
      thresh= 2.693E-06 alpha_mix =  0.700 |ddv_scf|^2 =  2.529E-11

      iter #  11 total cpu time :  3891.4 secs   av.it.:  16.7
      thresh= 5.029E-07 alpha_mix =  0.700 |ddv_scf|^2 =  3.447E-13

      iter #  12 total cpu time :  3905.4 secs   av.it.:  18.0
      thresh= 5.871E-08 alpha_mix =  0.700 |ddv_scf|^2 =  1.481E-13

      iter #  13 total cpu time :  3918.8 secs   av.it.:  17.2
      thresh= 3.848E-08 alpha_mix =  0.700 |ddv_scf|^2 =  1.752E-14

      iter #  14 total cpu time :  3932.7 secs   av.it.:  18.0
      thresh= 1.324E-08 alpha_mix =  0.700 |ddv_scf|^2 =  8.239E-15

      iter #  15 total cpu time :  3946.3 secs   av.it.:  17.3
      thresh= 9.077E-09 alpha_mix =  0.700 |ddv_scf|^2 =  1.290E-15

      iter #  16 total cpu time :  3959.4 secs   av.it.:  16.9
      thresh= 3.592E-09 alpha_mix =  0.700 |ddv_scf|^2 =  1.708E-15

      iter #  17 total cpu time :  3971.9 secs   av.it.:  15.8
      thresh= 4.133E-09 alpha_mix =  0.700 |ddv_scf|^2 =  9.893E-17

      iter #  18 total cpu time :  3985.6 secs   av.it.:  17.7
      thresh= 9.946E-10 alpha_mix =  0.700 |ddv_scf|^2 =  1.169E-17

      iter #  19 total cpu time :  3999.8 secs   av.it.:  18.5
      thresh= 3.418E-10 alpha_mix =  0.700 |ddv_scf|^2 =  7.992E-18

      iter #  20 total cpu time :  4013.5 secs   av.it.:  17.6
      thresh= 2.827E-10 alpha_mix =  0.700 |ddv_scf|^2 =  1.389E-18

      iter #  21 total cpu time :  4026.9 secs   av.it.:  17.3
      thresh= 1.179E-10 alpha_mix =  0.700 |ddv_scf|^2 =  3.581E-18

      iter #  22 total cpu time :  4039.3 secs   av.it.:  15.7
      thresh= 1.892E-10 alpha_mix =  0.700 |ddv_scf|^2 =  2.428E-19

      iter #  23 total cpu time :  4052.5 secs   av.it.:  16.8
      thresh= 4.928E-11 alpha_mix =  0.700 |ddv_scf|^2 =  9.080E-20

      iter #  24 total cpu time :  4065.8 secs   av.it.:  17.0
      thresh= 3.013E-11 alpha_mix =  0.700 |ddv_scf|^2 =  1.314E-20

      iter #  25 total cpu time :  4079.5 secs   av.it.:  17.8
      thresh= 1.146E-11 alpha_mix =  0.700 |ddv_scf|^2 =  8.114E-21

     End of self-consistent calculation

     Convergence has been achieved 


     Representation #   4 mode #   4

     Self-consistent Calculation

      iter #   1 total cpu time :  4087.4 secs   av.it.:   8.2
      thresh= 1.000E-02 alpha_mix =  0.700 |ddv_scf|^2 =  8.035E-08

      iter #   2 total cpu time :  4100.5 secs   av.it.:  16.6
      thresh= 2.835E-05 alpha_mix =  0.700 |ddv_scf|^2 =  7.934E-09

      iter #   3 total cpu time :  4113.6 secs   av.it.:  16.6
      thresh= 8.907E-06 alpha_mix =  0.700 |ddv_scf|^2 =  1.889E-10

      iter #   4 total cpu time :  4126.6 secs   av.it.:  16.6
      thresh= 1.374E-06 alpha_mix =  0.700 |ddv_scf|^2 =  7.481E-13

      iter #   5 total cpu time :  4139.5 secs   av.it.:  16.6
      thresh= 8.649E-08 alpha_mix =  0.700 |ddv_scf|^2 =  1.776E-14

      iter #   6 total cpu time :  4152.6 secs   av.it.:  16.8
      thresh= 1.333E-08 alpha_mix =  0.700 |ddv_scf|^2 =  1.246E-16

      iter #   7 total cpu time :  4165.8 secs   av.it.:  16.8
      thresh= 1.116E-09 alpha_mix =  0.700 |ddv_scf|^2 =  6.613E-19

      iter #   8 total cpu time :  4178.8 secs   av.it.:  16.7
      thresh= 8.132E-11 alpha_mix =  0.700 |ddv_scf|^2 =  3.193E-20

      iter #   9 total cpu time :  4192.1 secs   av.it.:  17.1
      thresh= 1.787E-11 alpha_mix =  0.700 |ddv_scf|^2 =  3.108E-22

     End of self-consistent calculation

     Convergence has been achieved 


     Representation #   5 mode #   5

     Self-consistent Calculation

      iter #   1 total cpu time :  4200.1 secs   av.it.:   8.6
      thresh= 1.000E-02 alpha_mix =  0.700 |ddv_scf|^2 =  1.164E-07

      iter #   2 total cpu time :  4213.8 secs   av.it.:  17.5
      thresh= 3.412E-05 alpha_mix =  0.700 |ddv_scf|^2 =  1.868E-08

      iter #   3 total cpu time :  4227.4 secs   av.it.:  17.5
      thresh= 1.367E-05 alpha_mix =  0.700 |ddv_scf|^2 =  3.713E-10

      iter #   4 total cpu time :  4240.7 secs   av.it.:  17.0
      thresh= 1.927E-06 alpha_mix =  0.700 |ddv_scf|^2 =  2.273E-12

      iter #   5 total cpu time :  4254.5 secs   av.it.:  17.8
      thresh= 1.508E-07 alpha_mix =  0.700 |ddv_scf|^2 =  9.681E-14

      iter #   6 total cpu time :  4268.3 secs   av.it.:  17.8
      thresh= 3.111E-08 alpha_mix =  0.700 |ddv_scf|^2 =  7.447E-16

      iter #   7 total cpu time :  4282.0 secs   av.it.:  17.6
      thresh= 2.729E-09 alpha_mix =  0.700 |ddv_scf|^2 =  2.898E-17

      iter #   8 total cpu time :  4295.9 secs   av.it.:  17.9
      thresh= 5.384E-10 alpha_mix =  0.700 |ddv_scf|^2 =  5.134E-19

      iter #   9 total cpu time :  4309.8 secs   av.it.:  17.8
      thresh= 7.165E-11 alpha_mix =  0.700 |ddv_scf|^2 =  9.824E-21

     End of self-consistent calculation

     Convergence has been achieved 


     Representation #   6 mode #   6

     Self-consistent Calculation

      iter #   1 total cpu time :  4319.4 secs   av.it.:  11.1
      thresh= 1.000E-02 alpha_mix =  0.700 |ddv_scf|^2 =  1.602E-06

[...]

      iter #  16 total cpu time : 29056.2 secs   av.it.:  18.2
      thresh= 6.257E-10 alpha_mix =  0.700 |ddv_scf|^2 =  3.387E-16

      iter #  17 total cpu time : 29078.9 secs   av.it.:  15.1
      thresh= 1.840E-09 alpha_mix =  0.700 |ddv_scf|^2 =  2.815E-18

      iter #  18 total cpu time : 29105.5 secs   av.it.:  18.5
      thresh= 1.678E-10 alpha_mix =  0.700 |ddv_scf|^2 =  4.393E-18

      iter #  19 total cpu time : 29129.7 secs   av.it.:  16.5
      thresh= 2.096E-10 alpha_mix =  0.700 |ddv_scf|^2 =  9.050E-20

      iter #  20 total cpu time : 29156.4 secs   av.it.:  18.5
      thresh= 3.008E-11 alpha_mix =  0.700 |ddv_scf|^2 =  2.149E-20

      iter #  21 total cpu time : 29182.0 secs   av.it.:  17.6
      thresh= 1.466E-11 alpha_mix =  0.700 |ddv_scf|^2 =  3.267E-21

     End of self-consistent calculation

     Convergence has been achieved 


     Representation #   5 mode #   5

     Self-consistent Calculation

      iter #   1 total cpu time : 29201.9 secs   av.it.:  12.7
      thresh= 1.000E-02 alpha_mix =  0.700 |ddv_scf|^2 =  9.131E-05

      iter #   2 total cpu time : 29228.1 secs   av.it.:  18.0
      thresh= 9.556E-04 alpha_mix =  0.700 |ddv_scf|^2 =  2.330E-03

      iter #   3 total cpu time : 29250.9 secs   av.it.:  15.2
      thresh= 4.827E-03 alpha_mix =  0.700 |ddv_scf|^2 =  3.966E-05

      iter #   4 total cpu time : 29275.1 secs   av.it.:  16.5
      thresh= 6.298E-04 alpha_mix =  0.700 |ddv_scf|^2 =  1.523E-06

      iter #   5 total cpu time : 29299.7 secs   av.it.:  16.9
      thresh= 1.234E-04 alpha_mix =  0.700 |ddv_scf|^2 =  1.629E-08

      iter #   6 total cpu time : 29325.2 secs   av.it.:  17.7
      thresh= 1.276E-05 alpha_mix =  0.700 |ddv_scf|^2 =  1.263E-09

      iter #   7 total cpu time : 29350.9 secs   av.it.:  17.8
      thresh= 3.554E-06 alpha_mix =  0.700 |ddv_scf|^2 =  5.612E-11

      iter #   8 total cpu time : 29377.5 secs   av.it.:  18.5
      thresh= 7.492E-07 alpha_mix =  0.700 |ddv_scf|^2 =  4.879E-12

      iter #   9 total cpu time : 29404.0 secs   av.it.:  18.3
      thresh= 2.209E-07 alpha_mix =  0.700 |ddv_scf|^2 =  3.774E-11

      iter #  10 total cpu time : 29427.4 secs   av.it.:  16.0
      thresh= 6.143E-07 alpha_mix =  0.700 |ddv_scf|^2 =  1.000E-11

      iter #  11 total cpu time : 29450.7 secs   av.it.:  15.9
      thresh= 3.163E-07 alpha_mix =  0.700 |ddv_scf|^2 =  2.830E-13

      iter #  12 total cpu time : 29477.0 secs   av.it.:  18.1
      thresh= 5.320E-08 alpha_mix =  0.700 |ddv_scf|^2 =  1.133E-13

      iter #  13 total cpu time : 29501.9 secs   av.it.:  17.0
      thresh= 3.367E-08 alpha_mix =  0.700 |ddv_scf|^2 =  9.020E-16

      iter #  14 total cpu time : 29528.2 secs   av.it.:  18.3
      thresh= 3.003E-09 alpha_mix =  0.700 |ddv_scf|^2 =  1.306E-16

      iter #  15 total cpu time : 29554.7 secs   av.it.:  18.3
      thresh= 1.143E-09 alpha_mix =  0.700 |ddv_scf|^2 =  6.084E-17

      iter #  16 total cpu time : 29580.9 secs   av.it.:  18.1
      thresh= 7.800E-10 alpha_mix =  0.700 |ddv_scf|^2 =  2.940E-16

      iter #  17 total cpu time : 29604.9 secs   av.it.:  16.3
      thresh= 1.715E-09 alpha_mix =  0.700 |ddv_scf|^2 =  8.250E-18

      iter #  18 total cpu time : 29630.1 secs   av.it.:  17.2
      thresh= 2.872E-10 alpha_mix =  0.700 |ddv_scf|^2 =  7.120E-18

      iter #  19 total cpu time : 29654.3 secs   av.it.:  16.5
      thresh= 2.668E-10 alpha_mix =  0.700 |ddv_scf|^2 =  3.445E-18

      iter #  20 total cpu time : 29679.1 secs   av.it.:  17.0
      thresh= 1.856E-10 alpha_mix =  0.700 |ddv_scf|^2 =  2.014E-19

      iter #  21 total cpu time : 29705.2 secs   av.it.:  18.1
      thresh= 4.487E-11 alpha_mix =  0.700 |ddv_scf|^2 =  4.165E-20

      iter #  22 total cpu time : 29731.0 secs   av.it.:  17.8
      thresh= 2.041E-11 alpha_mix =  0.700 |ddv_scf|^2 =  4.187E-20

      iter #  23 total cpu time : 29755.3 secs   av.it.:  16.5
      thresh= 2.046E-11 alpha_mix =  0.700 |ddv_scf|^2 =  2.411E-21

     End of self-consistent calculation

     Convergence has been achieved 


     Representation #   6 mode #   6

     Self-consistent Calculation

      iter #   1 total cpu time : 29770.9 secs   av.it.:   9.1
      thresh= 1.000E-02 alpha_mix =  0.700 |ddv_scf|^2 =  1.263E-06

      iter #   2 total cpu time : 29796.4 secs   av.it.:  17.7
      thresh= 1.124E-04 alpha_mix =  0.700 |ddv_scf|^2 =  2.932E-06

      iter #   3 total cpu time : 29820.0 secs   av.it.:  16.1
      thresh= 1.712E-04 alpha_mix =  0.700 |ddv_scf|^2 =  3.187E-08

      iter #   4 total cpu time : 29844.4 secs   av.it.:  16.9
      thresh= 1.785E-05 alpha_mix =  0.700 |ddv_scf|^2 =  2.782E-10

      iter #   5 total cpu time : 29870.1 secs   av.it.:  17.9
      thresh= 1.668E-06 alpha_mix =  0.700 |ddv_scf|^2 =  1.730E-11

      iter #   6 total cpu time : 29896.0 secs   av.it.:  18.0
      thresh= 4.159E-07 alpha_mix =  0.700 |ddv_scf|^2 =  1.076E-12

      iter #   7 total cpu time : 29920.8 secs   av.it.:  17.0
      thresh= 1.038E-07 alpha_mix =  0.700 |ddv_scf|^2 =  3.914E-14

      iter #   8 total cpu time : 29946.3 secs   av.it.:  17.6
      thresh= 1.978E-08 alpha_mix =  0.700 |ddv_scf|^2 =  1.328E-15

      iter #   9 total cpu time : 29972.6 secs   av.it.:  18.3
      thresh= 3.644E-09 alpha_mix =  0.700 |ddv_scf|^2 =  3.399E-16

      iter #  10 total cpu time : 29997.9 secs   av.it.:  17.4
      thresh= 1.844E-09 alpha_mix =  0.700 |ddv_scf|^2 =  1.377E-17

      iter #  11 total cpu time : 30023.0 secs   av.it.:  17.3
      thresh= 3.710E-10 alpha_mix =  0.700 |ddv_scf|^2 =  4.101E-19

      iter #  12 total cpu time : 30049.6 secs   av.it.:  18.5
      thresh= 6.404E-11 alpha_mix =  0.700 |ddv_scf|^2 =  1.449E-19

      iter #  13 total cpu time : 30075.5 secs   av.it.:  18.0
      thresh= 3.806E-11 alpha_mix =  0.700 |ddv_scf|^2 =  8.105E-20

      iter #  14 total cpu time : 30100.2 secs   av.it.:  17.0
      thresh= 2.847E-11 alpha_mix =  0.700 |ddv_scf|^2 =  2.459E-21

     End of self-consistent calculation

     Convergence has been achieved 


     Representation #   7 mode #   7

     Self-consistent Calculation

      iter #   1 total cpu time : 30115.2 secs   av.it.:   8.8
      thresh= 1.000E-02 alpha_mix =  0.700 |ddv_scf|^2 =  9.291E-07

      iter #   2 total cpu time : 30140.0 secs   av.it.:  17.0
      thresh= 9.639E-05 alpha_mix =  0.700 |ddv_scf|^2 =  1.886E-06

      iter #   3 total cpu time : 30163.5 secs   av.it.:  16.0
      thresh= 1.373E-04 alpha_mix =  0.700 |ddv_scf|^2 =  3.875E-08

      iter #   4 total cpu time : 30187.7 secs   av.it.:  16.6
      thresh= 1.969E-05 alpha_mix =  0.700 |ddv_scf|^2 =  5.218E-10

      iter #   5 total cpu time : 30212.8 secs   av.it.:  17.3
      thresh= 2.284E-06 alpha_mix =  0.700 |ddv_scf|^2 =  6.255E-11

      iter #   6 total cpu time : 30238.4 secs   av.it.:  17.7
      thresh= 7.909E-07 alpha_mix =  0.700 |ddv_scf|^2 =  4.947E-12

      iter #   7 total cpu time : 30263.2 secs   av.it.:  17.1
      thresh= 2.224E-07 alpha_mix =  0.700 |ddv_scf|^2 =  1.510E-13

      iter #   8 total cpu time : 30288.6 secs   av.it.:  17.5
      thresh= 3.886E-08 alpha_mix =  0.700 |ddv_scf|^2 =  2.454E-15

      iter #   9 total cpu time : 30314.9 secs   av.it.:  18.3
      thresh= 4.954E-09 alpha_mix =  0.700 |ddv_scf|^2 =  1.968E-16

      iter #  10 total cpu time : 30341.2 secs   av.it.:  18.3
      thresh= 1.403E-09 alpha_mix =  0.700 |ddv_scf|^2 =  1.880E-16

      iter #  11 total cpu time : 30365.9 secs   av.it.:  17.0
      thresh= 1.371E-09 alpha_mix =  0.700 |ddv_scf|^2 =  6.564E-18

      iter #  12 total cpu time : 30391.8 secs   av.it.:  17.9
      thresh= 2.562E-10 alpha_mix =  0.700 |ddv_scf|^2 =  2.311E-18

      iter #  13 total cpu time : 30416.9 secs   av.it.:  17.2
      thresh= 1.520E-10 alpha_mix =  0.700 |ddv_scf|^2 =  3.530E-19

      iter #  14 total cpu time : 30442.4 secs   av.it.:  17.7
      thresh= 5.942E-11 alpha_mix =  0.700 |ddv_scf|^2 =  2.732E-20

      iter #  15 total cpu time : 30468.3 secs   av.it.:  17.8
      thresh= 1.653E-11 alpha_mix =  0.700 |ddv_scf|^2 =  7.615E-22

     End of self-consistent calculation

     Convergence has been achieved 


     Representation #   8 mode #   8

     Self-consistent Calculation

      iter #   1 total cpu time : 30486.9 secs   av.it.:  11.8
      thresh= 1.000E-02 alpha_mix =  0.700 |ddv_scf|^2 =  1.136E-05

      iter #   2 total cpu time : 30512.6 secs   av.it.:  17.9
      thresh= 3.371E-04 alpha_mix =  0.700 |ddv_scf|^2 =  2.924E-05

      iter #   3 total cpu time : 30536.1 secs   av.it.:  16.0
      thresh= 5.407E-04 alpha_mix =  0.700 |ddv_scf|^2 =  1.962E-07

      iter #   4 total cpu time : 30561.3 secs   av.it.:  17.4
      thresh= 4.430E-05 alpha_mix =  0.700 |ddv_scf|^2 =  1.356E-08

      iter #   5 total cpu time : 30586.6 secs   av.it.:  17.4
      thresh= 1.165E-05 alpha_mix =  0.700 |ddv_scf|^2 =  6.626E-10

      iter #   6 total cpu time : 30612.6 secs   av.it.:  18.0
      thresh= 2.574E-06 alpha_mix =  0.700 |ddv_scf|^2 =  1.924E-11

      iter #   7 total cpu time : 30638.4 secs   av.it.:  17.8
      thresh= 4.387E-07 alpha_mix =  0.700 |ddv_scf|^2 =  4.247E-13

      iter #   8 total cpu time : 30664.6 secs   av.it.:  18.2
      thresh= 6.517E-08 alpha_mix =  0.700 |ddv_scf|^2 =  1.462E-14

      iter #   9 total cpu time : 30691.2 secs   av.it.:  18.6
      thresh= 1.209E-08 alpha_mix =  0.700 |ddv_scf|^2 =  1.010E-14

      iter #  10 total cpu time : 30716.1 secs   av.it.:  17.1
      thresh= 1.005E-08 alpha_mix =  0.700 |ddv_scf|^2 =  2.769E-16

      iter #  11 total cpu time : 30741.4 secs   av.it.:  17.5
      thresh= 1.664E-09 alpha_mix =  0.700 |ddv_scf|^2 =  6.856E-18

      iter #  12 total cpu time : 30767.1 secs   av.it.:  17.9
      thresh= 2.618E-10 alpha_mix =  0.700 |ddv_scf|^2 =  3.566E-19

      iter #  13 total cpu time : 30792.5 secs   av.it.:  17.6
      thresh= 5.971E-11 alpha_mix =  0.700 |ddv_scf|^2 =  2.207E-20

      iter #  14 total cpu time : 30819.1 secs   av.it.:  18.5
      thresh= 1.486E-11 alpha_mix =  0.700 |ddv_scf|^2 =  8.526E-21

     End of self-consistent calculation

     Convergence has been achieved 


     Representation #   9 mode #   9

     Self-consistent Calculation

      iter #   1 total cpu time : 30834.6 secs   av.it.:   9.0
      thresh= 1.000E-02 alpha_mix =  0.700 |ddv_scf|^2 =  4.523E-07

      iter #   2 total cpu time : 30860.4 secs   av.it.:  17.9
      thresh= 6.725E-05 alpha_mix =  0.700 |ddv_scf|^2 =  8.679E-07

      iter #   3 total cpu time : 30884.4 secs   av.it.:  16.2
      thresh= 9.316E-05 alpha_mix =  0.700 |ddv_scf|^2 =  2.298E-08

      iter #   4 total cpu time : 30909.1 secs   av.it.:  16.9
      thresh= 1.516E-05 alpha_mix =  0.700 |ddv_scf|^2 =  3.883E-10

      iter #   5 total cpu time : 30934.9 secs   av.it.:  17.8
      thresh= 1.971E-06 alpha_mix =  0.700 |ddv_scf|^2 =  3.264E-11

      iter #   6 total cpu time : 30960.9 secs   av.it.:  17.9
      thresh= 5.713E-07 alpha_mix =  0.700 |ddv_scf|^2 =  6.290E-13

      iter #   7 total cpu time : 30986.4 secs   av.it.:  17.6
      thresh= 7.931E-08 alpha_mix =  0.700 |ddv_scf|^2 =  2.125E-14

      iter #   8 total cpu time : 31012.6 secs   av.it.:  18.2
      thresh= 1.458E-08 alpha_mix =  0.700 |ddv_scf|^2 =  1.454E-15

      iter #   9 total cpu time : 31039.0 secs   av.it.:  18.3
      thresh= 3.813E-09 alpha_mix =  0.700 |ddv_scf|^2 =  2.727E-16

      iter #  10 total cpu time : 31064.5 secs   av.it.:  17.6
      thresh= 1.652E-09 alpha_mix =  0.700 |ddv_scf|^2 =  5.705E-17

      iter #  11 total cpu time : 31089.9 secs   av.it.:  17.6
      thresh= 7.553E-10 alpha_mix =  0.700 |ddv_scf|^2 =  8.876E-18

      iter #  12 total cpu time : 31114.9 secs   av.it.:  17.2
      thresh= 2.979E-10 alpha_mix =  0.700 |ddv_scf|^2 =  1.011E-18

      iter #  13 total cpu time : 31140.1 secs   av.it.:  17.3
      thresh= 1.006E-10 alpha_mix =  0.700 |ddv_scf|^2 =  3.010E-20

      iter #  14 total cpu time : 31166.6 secs   av.it.:  18.4
      thresh= 1.735E-11 alpha_mix =  0.700 |ddv_scf|^2 =  5.634E-21

     End of self-consistent calculation

     Convergence has been achieved 
 
     Number of q in the star =    2
     List of q in the star:
          1   0.396798743   0.000000000   0.000000000
          2  -0.396798743   0.000000000   0.000000000

     Diagonalizing the dynamical matrix

     q = (    0.396798743   0.000000000   0.000000000 ) 

 **************************************************************************
     freq (    1) =       3.834531 [THz] =     127.906190 [cm-1]
     freq (    2) =       4.755535 [THz] =     158.627564 [cm-1]
     freq (    3) =       5.898654 [THz] =     196.757923 [cm-1]
     freq (    4) =       8.981175 [THz] =     299.579761 [cm-1]
     freq (    5) =       9.709981 [THz] =     323.890098 [cm-1]
     freq (    6) =      10.138192 [THz] =     338.173696 [cm-1]
     freq (    7) =      10.936116 [THz] =     364.789556 [cm-1]
     freq (    8) =      11.558740 [THz] =     385.558075 [cm-1]
     freq (    9) =      11.828800 [THz] =     394.566291 [cm-1]
 **************************************************************************

     Mode symmetry, C_s (m)     point group:

     freq (   1-   1) =        127.9  [cm-1]   --> A''                
     freq (   2-   2) =        158.6  [cm-1]   --> A'                 
     freq (   3-   3) =        196.8  [cm-1]   --> A'                 
     freq (   4-   4) =        299.6  [cm-1]   --> A''                
     freq (   5-   5) =        323.9  [cm-1]   --> A''                
     freq (   6-   6) =        338.2  [cm-1]   --> A'                 
     freq (   7-   7) =        364.8  [cm-1]   --> A'                 
     freq (   8-   8) =        385.6  [cm-1]   --> A''                
     freq (   9-   9) =        394.6  [cm-1]   --> A'                 
 
     init_run     :      2.66s CPU      2.76s WALL (       8 calls)
     electrons    :    748.29s CPU    765.19s WALL (       8 calls)

     Called by init_run:
     wfcinit      :      0.00s CPU      0.00s WALL (       8 calls)
     potinit      :      0.52s CPU      0.56s WALL (       8 calls)
     hinit0       :      1.17s CPU      1.20s WALL (       8 calls)

     Called by electrons:
     c_bands      :    748.29s CPU    765.19s WALL (       8 calls)
     v_of_rho     :      0.09s CPU      0.11s WALL (       9 calls)
     newd         :      0.20s CPU      0.22s WALL (       9 calls)
     PAW_pot      :      0.43s CPU      0.45s WALL (       9 calls)

     Called by c_bands:
     init_us_2    :     53.43s CPU     56.12s WALL (  430438 calls)
     cegterg      :    704.85s CPU    720.18s WALL (    7356 calls)

     Called by *egterg:
     cdiaghg      :    347.57s CPU    349.66s WALL (  100763 calls)
     h_psi        :  22523.92s CPU  23640.24s WALL (10305960 calls)
     s_psi        :    640.86s CPU    676.15s WALL (20900586 calls)
     g_psi        :      1.72s CPU      1.74s WALL (   96191 calls)

     Called by h_psi:
     h_psi:calbec :   1086.38s CPU   1142.45s WALL (10305960 calls)
     vloc_psi     :  20962.92s CPU  21998.65s WALL (10305960 calls)
     add_vuspsi   :    341.57s CPU    360.33s WALL (10305960 calls)

     General routines
     calbec       :   2059.41s CPU   2172.77s WALL (21476562 calls)
     fft          :     17.24s CPU     19.31s WALL (   25677 calls)
     ffts         :      4.26s CPU      4.56s WALL (   26071 calls)
     fftw         :  22105.61s CPU  23233.05s WALL (******** calls)
     interpolate  :      2.66s CPU      3.02s WALL (    3049 calls)
     davcio       :     38.76s CPU     43.68s WALL ( 2020494 calls)
 
     Parallel routines
     fft_scatt_xy :   1614.15s CPU   1689.68s WALL (******** calls)
     fft_scatt_yz :  10091.67s CPU  10601.61s WALL (******** calls)
 
     PHONON       :      8h14m CPU      8h39m WALL

     INITIALIZATION: 
     phq_setup    :      0.27s CPU      0.30s WALL (       9 calls)
     phq_init     :     65.47s CPU     67.99s WALL (       9 calls)
 
     phq_init     :     65.47s CPU     67.99s WALL (       9 calls)
     set_drhoc    :      3.36s CPU      3.37s WALL (      27 calls)
     init_vloc    :      0.54s CPU      0.54s WALL (       9 calls)
     init_us_1    :      0.36s CPU      0.39s WALL (       9 calls)
     newd         :      0.20s CPU      0.22s WALL (       9 calls)
     dvanqq       :      2.26s CPU      2.28s WALL (       9 calls)
     drho         :     51.97s CPU     54.17s WALL (       9 calls)
 
     DYNAMICAL MATRIX:
     dynmat0      :      7.51s CPU      7.67s WALL (       9 calls)
     phqscf       :  28482.67s CPU  29942.08s WALL (       9 calls)
     dynmatrix    :      0.01s CPU      0.03s WALL (       9 calls)
 
     phqscf       :  28482.67s CPU  29942.08s WALL (       9 calls)
     solve_linter :  28461.71s CPU  29919.53s WALL (      81 calls)
     drhodv       :     15.31s CPU     16.27s WALL (      81 calls)
 
     dynmat0      :      7.51s CPU      7.67s WALL (       9 calls)
     dynmat_us    :      5.11s CPU      5.25s WALL (       9 calls)
     d2ionq       :      0.06s CPU      0.06s WALL (       9 calls)
     dynmatcc     :      2.32s CPU      2.34s WALL (       9 calls)
 
     dynmat_us    :      5.11s CPU      5.25s WALL (       9 calls)
     addusdynmat  :      0.00s CPU      0.00s WALL (       9 calls)
 
     phqscf       :  28482.67s CPU  29942.08s WALL (       9 calls)
     solve_linter :  28461.71s CPU  29919.53s WALL (      81 calls)
 
     solve_linter :  28461.71s CPU  29919.53s WALL (      81 calls)
     dvqpsi_us    :     93.99s CPU     98.22s WALL (   22212 calls)
     ortho        :    111.48s CPU    117.35s WALL (  396512 calls)
     cgsolve      :  25582.41s CPU  26865.88s WALL (  396512 calls)
     incdrhoscf   :   1306.97s CPU   1384.06s WALL (  396512 calls)
     addusddens   :     58.70s CPU     59.43s WALL (    1504 calls)
     vpsifft      :   1148.62s CPU   1225.71s WALL (  370205 calls)
     dv_of_drho   :     13.48s CPU     15.09s WALL (    1477 calls)
     mix_pot      :      1.66s CPU      3.72s WALL (    1440 calls)
     psymdvscf    :     71.08s CPU     74.72s WALL (    1423 calls)
     newdq        :     37.37s CPU     37.65s WALL (    1440 calls)
     adddvscf     :     36.40s CPU     38.49s WALL (  374573 calls)
     drhodvus     :      0.05s CPU      0.08s WALL (      81 calls)
 
     dvqpsi_us    :     93.99s CPU     98.22s WALL (   22212 calls)
     dvqpsi_us_on :     21.60s CPU     22.17s WALL (   22212 calls)
 
     cgsolve      :  25582.41s CPU  26865.88s WALL (  396512 calls)
     ch_psi       :  24776.10s CPU  26014.67s WALL (10197841 calls)
 
     ch_psi       :  24776.10s CPU  26014.67s WALL (10197841 calls)
     h_psi        :  22523.92s CPU  23640.24s WALL (10305960 calls)
     last         :   2026.97s CPU   2135.66s WALL (10197841 calls)
 
     h_psi        :  22523.92s CPU  23640.24s WALL (10305960 calls)
     add_vuspsi   :    341.57s CPU    360.33s WALL (10305960 calls)
 
     incdrhoscf   :   1306.97s CPU   1384.06s WALL (  396512 calls)
     addusdbec    :     61.90s CPU     64.90s WALL (  417905 calls)
 
     drhodvus     :      0.05s CPU      0.08s WALL (      81 calls)
 
      General routines
     calbec       :   2059.41s CPU   2172.77s WALL (21476562 calls)
     fft          :     17.24s CPU     19.31s WALL (   25677 calls)
     ffts         :      4.26s CPU      4.56s WALL (   26071 calls)
     fftw         :  22105.61s CPU  23233.05s WALL (******** calls)
     davcio       :     38.76s CPU     43.68s WALL ( 2020494 calls)
     write_rec    :      0.42s CPU      2.12s WALL (    1521 calls)
 
 
     PHONON       :      8h14m CPU      8h39m WALL

 
   This run was terminated on:  20:27:40  23Feb2022            

=------------------------------------------------------------------------------=
   JOB DONE.
=------------------------------------------------------------------------------=
