
     Program Q2R v.6.7MaX starts on 23Feb2022 at 20:27:40 

     This program is part of the open-source Quantum ESPRESSO suite
     for quantum simulation of materials; please cite
         "P. Giannozzi et al., J. Phys.:Condens. Matter 21 395502 (2009);
         "P. Giannozzi et al., J. Phys.:Condens. Matter 29 465901 (2017);
          URL http://www.quantum-espresso.org", 
     in publications or presentations arising from this work. More details at
     http://www.quantum-espresso.org/quote

     Parallel version (MPI), running on     1 processors

     MPI processes distributed on     1 nodes

     reading grid info from file MoS2.dyn0    
  reading force constants from file MoS2.dyn1
 macroscopic fields = T
   8.70858   0.00000   0.00000
   0.00000   8.70407   0.00000
   0.00000   0.00000   1.82715
  na=            1
  -1.00542   0.00000   0.00000
   0.00000  -0.99694   0.00000
   0.00000   0.00000  -0.11246
  na=            2
   0.50574   0.00000   0.00000
   0.00000   0.50488  -0.00024
   0.00000   0.00001   0.05480
  na=            3
   0.50574   0.00000   0.00000
   0.00000   0.50488   0.00024
   0.00000  -0.00001   0.05480
  nqs=            1
 q=   0.00000000  0.00000000  0.00000000
  reading force constants from file MoS2.dyn2
  nqs=            2
 q=   0.00000000  0.22912017  0.00000000
 q=   0.00000000 -0.22912017  0.00000000
  reading force constants from file MoS2.dyn3
  nqs=            2
 q=   0.00000000  0.45824034  0.00000000
 q=   0.00000000 -0.45824034  0.00000000
  reading force constants from file MoS2.dyn4
  nqs=            4
 q=   0.19839937  0.11456009  0.00000000
 q=  -0.19839937 -0.11456009  0.00000000
 q=  -0.19839937  0.11456009  0.00000000
 q=   0.19839937 -0.11456009  0.00000000
  reading force constants from file MoS2.dyn5
  nqs=            4
 q=   0.19839937  0.34368025  0.00000000
 q=  -0.19839937 -0.34368025  0.00000000
 q=  -0.19839937  0.34368025  0.00000000
 q=   0.19839937 -0.34368025  0.00000000
  reading force constants from file MoS2.dyn6
  nqs=            2
 q=   0.19839937  0.57280042  0.00000000
 q=  -0.19839937  0.57280042  0.00000000
  reading force constants from file MoS2.dyn7
  nqs=            4
 q=   0.39679874  0.22912017  0.00000000
 q=  -0.39679874 -0.22912017  0.00000000
 q=  -0.39679874  0.22912017  0.00000000
 q=   0.39679874 -0.22912017  0.00000000
  reading force constants from file MoS2.dyn8
  nqs=            4
 q=   0.39679874  0.45824034  0.00000000
 q=  -0.39679874 -0.45824034  0.00000000
 q=  -0.39679874  0.45824034  0.00000000
 q=   0.39679874 -0.45824034  0.00000000
  reading force constants from file MoS2.dyn9
  nqs=            2
 q=   0.39679874  0.00000000  0.00000000
 q=  -0.39679874  0.00000000  0.00000000

      q-space grid ok, #points =   25

      fft-check warning: sum of imaginary terms = 3.869669E-11
 
     Q2R          :      0.02s CPU      0.04s WALL

 
   This run was terminated on:  20:27:40  23Feb2022            

=------------------------------------------------------------------------------=
   JOB DONE.
=------------------------------------------------------------------------------=
