
     Program PHONON v.6.7MaX starts on 23Feb2022 at 10:29:55 

     This program is part of the open-source Quantum ESPRESSO suite
     for quantum simulation of materials; please cite
         "P. Giannozzi et al., J. Phys.:Condens. Matter 21 395502 (2009);
         "P. Giannozzi et al., J. Phys.:Condens. Matter 29 465901 (2017);
          URL http://www.quantum-espresso.org", 
     in publications or presentations arising from this work. More details at
     http://www.quantum-espresso.org/quote

     Parallel version (MPI), running on    20 processors

     MPI processes distributed on     1 nodes
     R & G space division:  proc/nbgrp/npool/nimage =      20
     Waiting for input...
     Reading input from standard input

     Reading xml data from directory:

     ./2Dgraphene.save/
     Message from routine qexsd_readschema :
     input info not found or not readable in xml file
     file C.pbe-rrkjus.UPF: wavefunction(s)  2S 2P renormalized

     IMPORTANT: XC functional enforced from input :
     Exchange-correlation= PBE
                           (   1   4   3   4   0   0   0)
     Any further DFT definition will be discarded
     Please, verify this is what you really want

 
     Parallelization info
     --------------------
     sticks:   dense  smooth     PW     G-vecs:    dense   smooth      PW
     Min          20      20      8                 2643     2643     660
     Max          23      23      9                 2654     2654     683
     Sum         409     409    163                52949    52949   13511
 

     negative rho (up, down):  6.981E-05 0.000E+00
     Reading collected, re-writing distributed wavefunctions


     Dynamical matrices for ( 7, 7, 1)  uniform grid of q-points
     (   8 q-points):
       N         xq(1)         xq(2)         xq(3) 
       1   0.000000000   0.000000000   0.000000000
       2   0.000000000   0.164957220   0.000000000
       3   0.000000000   0.329914440   0.000000000
       4   0.000000000   0.494871659   0.000000000
       5   0.142857143   0.247435830   0.000000000
       6   0.142857143   0.412393049   0.000000000
       7   0.142857143   0.577350269   0.000000000
       8   0.285714286   0.494871659   0.000000000

     Calculation of q =    0.0000000   0.0000000   0.0000000

                                                                                

     bravais-lattice index     =            4
     lattice parameter (alat)  =       4.6531  a.u.
     unit-cell volume          =     708.6620 (a.u.)^3
     number of atoms/cell      =            2
     number of atomic types    =            1
     kinetic-energy cut-off    =      90.0000  Ry
     charge density cut-off    =     270.0000  Ry
     convergence threshold     =      1.0E-20
     beta                      =       0.7000
     number of iterations used =            4
     Exchange-correlation= PBE
                           (   1   4   3   4   0   0   0)


     celldm(1)=    4.65307  celldm(2)=    0.00000  celldm(3)=    8.12249
     celldm(4)=    0.00000  celldm(5)=    0.00000  celldm(6)=    0.00000

     crystal axes: (cart. coord. in units of alat)
               a(1) = (  1.0000  0.0000  0.0000 )  
               a(2) = ( -0.5000  0.8660  0.0000 )  
               a(3) = (  0.0000  0.0000  8.1225 )  

     reciprocal axes: (cart. coord. in units 2 pi/alat)
               b(1) = (  1.0000  0.5774  0.0000 )  
               b(2) = (  0.0000  1.1547  0.0000 )  
               b(3) = (  0.0000  0.0000  0.1231 )  


     Atoms inside the unit cell: 

     Cartesian axes

     site n.  atom      mass           positions (alat units)
        1     C   12.0107   tau(    1) = (    0.00000    0.57735    4.06124  )
        2     C   12.0107   tau(    2) = (    0.50000    0.28868    4.06124  )

     Computing dynamical matrix for 
                    q = (   0.0000000   0.0000000   0.0000000 )
 
     25 Sym.Ops. (with q -> -q+G )


     G cutoff =  148.0757  (   2654 G-vectors)     FFT grid: ( 25, 25,200)

     number of k points=    19  Methfessel-Paxton smearing, width (Ry)=  0.0200

     PseudoPot. # 1 for C  read from file:
     ../Pseudo/C.pbe-rrkjus.UPF
     MD5 check sum: 00fb224312de0c5b6853bd333518df6f
     Pseudo is Ultrasoft, Zval =  4.0
     Generated by new atomic code, or converted to UPF format
     Using radial grid of  627 points,  4 beta functions with: 
                l(1) =   0
                l(2) =   0
                l(3) =   1
                l(4) =   1
     Q(r) pseudized with 0 coefficients 


     Mode symmetry, D_6h(6/mmm) point group:


     Atomic displacements:
     There are    4 irreducible representations

     Representation     1      1 modes -  To be done

     Representation     2      2 modes -  To be done

     Representation     3      1 modes -  To be done

     Representation     4      2 modes -  To be done



     Alpha used in Ewald sum =   2.8000
     PHONON       :      0.61s CPU      0.68s WALL



     Representation #   1 mode #   1

     Self-consistent Calculation
 
     Pert. #  1: Fermi energy shift (Ry) =    -4.3082E-27     0.0000E+00

      iter #   1 total cpu time :     1.2 secs   av.it.:   3.9
      thresh= 1.000E-02 alpha_mix =  0.700 |ddv_scf|^2 =  1.090E-07
 
     Pert. #  1: Fermi energy shift (Ry) =     0.0000E+00     0.0000E+00

      iter #   2 total cpu time :     1.7 secs   av.it.:   7.3
      thresh= 3.302E-05 alpha_mix =  0.700 |ddv_scf|^2 =  9.167E-09
 
     Pert. #  1: Fermi energy shift (Ry) =    -2.6926E-28     0.0000E+00

      iter #   3 total cpu time :     2.2 secs   av.it.:   6.8
      thresh= 9.574E-06 alpha_mix =  0.700 |ddv_scf|^2 =  1.485E-11
 
     Pert. #  1: Fermi energy shift (Ry) =     0.0000E+00     0.0000E+00

      iter #   4 total cpu time :     2.7 secs   av.it.:   8.1
      thresh= 3.854E-07 alpha_mix =  0.700 |ddv_scf|^2 =  6.139E-14
 
     Pert. #  1: Fermi energy shift (Ry) =    -2.1541E-27     0.0000E+00

      iter #   5 total cpu time :     3.2 secs   av.it.:   7.5
      thresh= 2.478E-08 alpha_mix =  0.700 |ddv_scf|^2 =  1.596E-16
 
     Pert. #  1: Fermi energy shift (Ry) =     0.0000E+00     0.0000E+00

      iter #   6 total cpu time :     3.8 secs   av.it.:   8.1
      thresh= 1.263E-09 alpha_mix =  0.700 |ddv_scf|^2 =  3.218E-18
 
     Pert. #  1: Fermi energy shift (Ry) =     2.1541E-27     0.0000E+00

      iter #   7 total cpu time :     4.3 secs   av.it.:   7.4
      thresh= 1.794E-10 alpha_mix =  0.700 |ddv_scf|^2 =  7.634E-22

     End of self-consistent calculation

     Convergence has been achieved 


     Representation #   2 modes #   2   3

     Self-consistent Calculation
 
     Pert. #  1: Fermi energy shift (Ry) =    -2.7105E-20     3.8265E-42
     Pert. #  2: Fermi energy shift (Ry) =     1.8748E-19    -4.5918E-41

      iter #   1 total cpu time :     5.2 secs   av.it.:   4.9
      thresh= 1.000E-02 alpha_mix =  0.700 |ddv_scf|^2 =  4.176E-08
 
     Pert. #  1: Fermi energy shift (Ry) =    -4.4116E-23     2.1046E-41
     Pert. #  2: Fermi energy shift (Ry) =     1.1911E-22    -2.6307E-41

      iter #   2 total cpu time :     6.3 secs   av.it.:   9.8
      thresh= 2.044E-05 alpha_mix =  0.700 |ddv_scf|^2 =  1.505E-09
 
     Pert. #  1: Fermi energy shift (Ry) =     3.0881E-23     1.9132E-41
     Pert. #  2: Fermi energy shift (Ry) =    -2.4264E-23    -8.6096E-42

      iter #   3 total cpu time :     7.3 secs   av.it.:   8.2
      thresh= 3.880E-06 alpha_mix =  0.700 |ddv_scf|^2 =  7.059E-11
 
     Pert. #  1: Fermi energy shift (Ry) =    -7.4446E-24     2.1046E-41
     Pert. #  2: Fermi energy shift (Ry) =    -2.6194E-24    -2.6307E-41

      iter #   4 total cpu time :     8.3 secs   av.it.:   7.7
      thresh= 8.402E-07 alpha_mix =  0.700 |ddv_scf|^2 =  1.824E-14
 
     Pert. #  1: Fermi energy shift (Ry) =     7.9961E-24     1.3393E-41
     Pert. #  2: Fermi energy shift (Ry) =    -1.8612E-23    -1.6741E-41

      iter #   5 total cpu time :     9.3 secs   av.it.:   8.8
      thresh= 1.350E-08 alpha_mix =  0.700 |ddv_scf|^2 =  6.849E-17
 
     Pert. #  1: Fermi energy shift (Ry) =    -2.4815E-24     1.3393E-41
     Pert. #  2: Fermi energy shift (Ry) =    -1.5579E-23    -1.6741E-41

      iter #   6 total cpu time :    10.4 secs   av.it.:   8.9
      thresh= 8.276E-10 alpha_mix =  0.700 |ddv_scf|^2 =  9.468E-19
 
     Pert. #  1: Fermi energy shift (Ry) =     1.1029E-24     1.3393E-41
     Pert. #  2: Fermi energy shift (Ry) =    -6.4796E-24    -1.6741E-41

      iter #   7 total cpu time :    11.4 secs   av.it.:   8.9
      thresh= 9.730E-11 alpha_mix =  0.700 |ddv_scf|^2 =  4.508E-22

     End of self-consistent calculation

     Convergence has been achieved 


     Representation #   3 mode #   4

     Self-consistent Calculation
 
     Pert. #  1: Fermi energy shift (Ry) =     8.6165E-27     0.0000E+00

      iter #   1 total cpu time :    12.0 secs   av.it.:   5.5
      thresh= 1.000E-02 alpha_mix =  0.700 |ddv_scf|^2 =  7.083E-05
 
     Pert. #  1: Fermi energy shift (Ry) =    -8.6165E-27     0.0000E+00

      iter #   2 total cpu time :    12.5 secs   av.it.:   7.6
      thresh= 8.416E-04 alpha_mix =  0.700 |ddv_scf|^2 =  8.255E-05
 
     Pert. #  1: Fermi energy shift (Ry) =     2.6926E-28     0.0000E+00

      iter #   3 total cpu time :    13.0 secs   av.it.:   7.1
      thresh= 9.086E-04 alpha_mix =  0.700 |ddv_scf|^2 =  5.087E-08
 
     Pert. #  1: Fermi energy shift (Ry) =    -3.3658E-29     0.0000E+00

      iter #   4 total cpu time :    13.5 secs   av.it.:   7.1
      thresh= 2.255E-05 alpha_mix =  0.700 |ddv_scf|^2 =  3.472E-10
 
     Pert. #  1: Fermi energy shift (Ry) =    -3.3658E-29     0.0000E+00

      iter #   5 total cpu time :    13.9 secs   av.it.:   6.7
      thresh= 1.863E-06 alpha_mix =  0.700 |ddv_scf|^2 =  2.902E-11
 
     Pert. #  1: Fermi energy shift (Ry) =     3.3658E-29     0.0000E+00

      iter #   6 total cpu time :    14.4 secs   av.it.:   7.0
      thresh= 5.387E-07 alpha_mix =  0.700 |ddv_scf|^2 =  2.834E-14
 
     Pert. #  1: Fermi energy shift (Ry) =    -3.3658E-29     0.0000E+00

      iter #   7 total cpu time :    14.9 secs   av.it.:   6.9
      thresh= 1.683E-08 alpha_mix =  0.700 |ddv_scf|^2 =  8.816E-16
 
     Pert. #  1: Fermi energy shift (Ry) =     3.3658E-29     0.0000E+00

      iter #   8 total cpu time :    15.4 secs   av.it.:   7.0
      thresh= 2.969E-09 alpha_mix =  0.700 |ddv_scf|^2 =  6.682E-19
 
     Pert. #  1: Fermi energy shift (Ry) =    -3.3658E-29     0.0000E+00

      iter #   9 total cpu time :    15.9 secs   av.it.:   7.3
      thresh= 8.175E-11 alpha_mix =  0.700 |ddv_scf|^2 =  3.471E-20
 
     Pert. #  1: Fermi energy shift (Ry) =     3.3658E-29     0.0000E+00

      iter #  10 total cpu time :    16.4 secs   av.it.:   7.1
      thresh= 1.863E-11 alpha_mix =  0.700 |ddv_scf|^2 =  5.861E-23

     End of self-consistent calculation

     Convergence has been achieved 


     Representation #   4 modes #   5   6

     Self-consistent Calculation
 
     Pert. #  1: Fermi energy shift (Ry) =    -3.0158E-26    -3.0093E-36
     Pert. #  2: Fermi energy shift (Ry) =    -1.0771E-26     2.0062E-36

      iter #   1 total cpu time :    17.3 secs   av.it.:   4.7
      thresh= 1.000E-02 alpha_mix =  0.700 |ddv_scf|^2 =  2.050E-08
 
     Pert. #  1: Fermi energy shift (Ry) =     0.0000E+00    -7.8366E-39
     Pert. #  2: Fermi energy shift (Ry) =     8.6165E-27     4.4081E-39

      iter #   2 total cpu time :    18.3 secs   av.it.:   8.9
      thresh= 1.432E-05 alpha_mix =  0.700 |ddv_scf|^2 =  1.449E-09
 
     Pert. #  1: Fermi energy shift (Ry) =    -3.0158E-26    -4.8979E-40
     Pert. #  2: Fermi energy shift (Ry) =     2.1541E-27     4.8979E-40

      iter #   3 total cpu time :    19.3 secs   av.it.:   7.8
      thresh= 3.807E-06 alpha_mix =  0.700 |ddv_scf|^2 =  1.365E-11
 
     Pert. #  1: Fermi energy shift (Ry) =    -3.8774E-26     1.3775E-40
     Pert. #  2: Fermi energy shift (Ry) =     0.0000E+00    -7.6530E-41

      iter #   4 total cpu time :    20.3 secs   av.it.:   8.6
      thresh= 3.695E-07 alpha_mix =  0.700 |ddv_scf|^2 =  1.481E-14
 
     Pert. #  1: Fermi energy shift (Ry) =     3.8774E-26    -9.1835E-41
     Pert. #  2: Fermi energy shift (Ry) =    -1.2925E-26     6.1224E-41

      iter #   5 total cpu time :    21.3 secs   av.it.:   8.7
      thresh= 1.217E-08 alpha_mix =  0.700 |ddv_scf|^2 =  1.650E-17
 
     Pert. #  1: Fermi energy shift (Ry) =    -8.6165E-27    -9.1835E-41
     Pert. #  2: Fermi energy shift (Ry) =     0.0000E+00     6.1224E-41

      iter #   6 total cpu time :    22.4 secs   av.it.:   9.1
      thresh= 4.062E-10 alpha_mix =  0.700 |ddv_scf|^2 =  6.087E-19
 
     Pert. #  1: Fermi energy shift (Ry) =    -2.5849E-26    -9.1835E-41
     Pert. #  2: Fermi energy shift (Ry) =    -4.3082E-26     6.1224E-41

      iter #   7 total cpu time :    23.4 secs   av.it.:   9.3
      thresh= 7.802E-11 alpha_mix =  0.700 |ddv_scf|^2 =  1.888E-21

     End of self-consistent calculation

     Convergence has been achieved 
 
     Number of q in the star =    1
     List of q in the star:
          1   0.000000000   0.000000000   0.000000000

     Diagonalizing the dynamical matrix

     q = (    0.000000000   0.000000000   0.000000000 ) 

 **************************************************************************
     freq (    1) =      -1.045236 [THz] =     -34.865311 [cm-1]
     freq (    2) =      -1.045236 [THz] =     -34.865311 [cm-1]
     freq (    3) =       2.453706 [THz] =      81.846826 [cm-1]
     freq (    4) =      26.498113 [THz] =     883.881914 [cm-1]
     freq (    5) =      44.059978 [THz] =    1469.682657 [cm-1]
     freq (    6) =      44.059978 [THz] =    1469.682657 [cm-1]
 **************************************************************************

     Mode symmetry, D_6h(6/mmm) point group:

     freq (   1-   2) =        -34.9  [cm-1]   --> E_1u            I  
     freq (   3-   3) =         81.8  [cm-1]   --> A_2u            I  
     freq (   4-   4) =        883.9  [cm-1]   --> B_1g               
     freq (   5-   6) =       1469.7  [cm-1]   --> E_2g            R  

     Calculation of q =    0.0000000   0.1649572   0.0000000

     Subspace diagonalization in iterative solution of the eigenvalue problem:
     one sub-group per band group will be used
     scalapack distributed-memory algorithm (size of sub-group:  4*  4 procs)

 
     Parallelization info
     --------------------
     sticks:   dense  smooth     PW     G-vecs:    dense   smooth      PW
     Min          20      20      8                 2643     2643     694
     Max          23      23      9                 2652     2652     725
     Sum         409     409    163                52949    52949   14125
 


     bravais-lattice index     =            4
     lattice parameter (alat)  =       4.6531  a.u.
     unit-cell volume          =     708.6620 (a.u.)^3
     number of atoms/cell      =            2
     number of atomic types    =            1
     number of electrons       =         8.00
     number of Kohn-Sham states=            8
     kinetic-energy cutoff     =      90.0000  Ry
     charge density cutoff     =     270.0000  Ry
     Exchange-correlation= PBE
                           (   1   4   3   4   0   0   0)

     celldm(1)=   4.653073  celldm(2)=   0.000000  celldm(3)=   8.122487
     celldm(4)=   0.000000  celldm(5)=   0.000000  celldm(6)=   0.000000

     crystal axes: (cart. coord. in units of alat)
               a(1) = (   1.000000   0.000000   0.000000 )  
               a(2) = (  -0.500000   0.866025   0.000000 )  
               a(3) = (   0.000000   0.000000   8.122487 )  

     reciprocal axes: (cart. coord. in units 2 pi/alat)
               b(1) = (  1.000000  0.577350  0.000000 )  
               b(2) = (  0.000000  1.154701  0.000000 )  
               b(3) = (  0.000000  0.000000  0.123115 )  


     PseudoPot. # 1 for C  read from file:
     ../Pseudo/C.pbe-rrkjus.UPF
     MD5 check sum: 00fb224312de0c5b6853bd333518df6f
     Pseudo is Ultrasoft, Zval =  4.0
     Generated by new atomic code, or converted to UPF format
     Using radial grid of  627 points,  4 beta functions with: 
                l(1) =   0
                l(2) =   0
                l(3) =   1
                l(4) =   1
     Q(r) pseudized with 0 coefficients 


     atomic species   valence    mass     pseudopotential
        C              4.00    12.01070     C ( 1.00)

     24 Sym. Ops., with inversion, found



   Cartesian axes

     site n.     atom                  positions (alat units)
         1           C   tau(   1) = (   0.0000000   0.5773503   4.0612436  )
         2           C   tau(   2) = (   0.5000000   0.2886751   4.0612436  )

     number of k points=   156  Methfessel-Paxton smearing, width (Ry)=  0.0200

     Number of k-points >= 100: set verbosity='high' to print them.

     Dense  grid:    52949 G-vectors     FFT dimensions: (  25,  25, 200)

     Estimated max dynamical RAM per process >       3.19 MB

     Estimated total dynamical RAM >      63.82 MB

     The potential is recalculated from file :
     ./_ph0/2Dgraphene.save/charge-density


     negative rho (up, down):  6.981E-05 0.000E+00
     Starting wfcs are    8 atomic wfcs

     Band Structure Calculation
     Davidson diagonalization with overlap

     ethr =  1.25E-10,  avg # of iterations = 25.6

     total cpu time spent up to now is       22.7 secs

     End of band structure calculation

     Number of k-points >= 100: set verbosity='high' to print the bands.

     the Fermi energy is    -2.3445 ev

     Writing output data file ./_ph0/2Dgraphene.save/

                                                                                

     bravais-lattice index     =            4
     lattice parameter (alat)  =       4.6531  a.u.
     unit-cell volume          =     708.6620 (a.u.)^3
     number of atoms/cell      =            2
     number of atomic types    =            1
     kinetic-energy cut-off    =      90.0000  Ry
     charge density cut-off    =     270.0000  Ry
     convergence threshold     =      1.0E-20
     beta                      =       0.7000
     number of iterations used =            4
     Exchange-correlation= PBE
                           (   1   4   3   4   0   0   0)


     celldm(1)=    4.65307  celldm(2)=    0.00000  celldm(3)=    8.12249
     celldm(4)=    0.00000  celldm(5)=    0.00000  celldm(6)=    0.00000

     crystal axes: (cart. coord. in units of alat)
               a(1) = (  1.0000  0.0000  0.0000 )  
               a(2) = ( -0.5000  0.8660  0.0000 )  
               a(3) = (  0.0000  0.0000  8.1225 )  

     reciprocal axes: (cart. coord. in units 2 pi/alat)
               b(1) = (  1.0000  0.5774  0.0000 )  
               b(2) = (  0.0000  1.1547  0.0000 )  
               b(3) = (  0.0000  0.0000  0.1231 )  


     Atoms inside the unit cell: 

     Cartesian axes

     site n.  atom      mass           positions (alat units)
        1     C   12.0107   tau(    1) = (    0.00000    0.57735    4.06124  )
        2     C   12.0107   tau(    2) = (    0.50000    0.28868    4.06124  )

     Computing dynamical matrix for 
                    q = (   0.0000000   0.1649572   0.0000000 )
 
      4 Sym.Ops. (no q -> -q+G )


     G cutoff =  148.0757  (   2646 G-vectors)     FFT grid: ( 25, 25,200)

     number of k points=   156  Methfessel-Paxton smearing, width (Ry)=  0.0200

     PseudoPot. # 1 for C  read from file:
     ../Pseudo/C.pbe-rrkjus.UPF
     MD5 check sum: 00fb224312de0c5b6853bd333518df6f
     Pseudo is Ultrasoft, Zval =  4.0
     Generated by new atomic code, or converted to UPF format
     Using radial grid of  627 points,  4 beta functions with: 
                l(1) =   0
                l(2) =   0
                l(3) =   1
                l(4) =   1
     Q(r) pseudized with 0 coefficients 


     Mode symmetry, C_2v (mm2)  point group:


     Atomic displacements:
     There are    6 irreducible representations

     Representation     1      1 modes -  To be done

     Representation     2      1 modes -  To be done

     Representation     3      1 modes -  To be done

     Representation     4      1 modes -  To be done

     Representation     5      1 modes -  To be done

     Representation     6      1 modes -  To be done



     Alpha used in Ewald sum =   2.8000
     PHONON       :     45.68s CPU     47.05s WALL



     Representation #   1 mode #   1

     Self-consistent Calculation

      iter #   1 total cpu time :    48.4 secs   av.it.:   5.3
      thresh= 1.000E-02 alpha_mix =  0.700 |ddv_scf|^2 =  3.956E-05

      iter #   2 total cpu time :    50.1 secs   av.it.:   8.3
      thresh= 6.290E-04 alpha_mix =  0.700 |ddv_scf|^2 =  2.537E-04

      iter #   3 total cpu time :    51.5 secs   av.it.:   7.1
      thresh= 1.593E-03 alpha_mix =  0.700 |ddv_scf|^2 =  8.972E-09

      iter #   4 total cpu time :    53.2 secs   av.it.:   9.3
      thresh= 9.472E-06 alpha_mix =  0.700 |ddv_scf|^2 =  4.039E-09

      iter #   5 total cpu time :    54.9 secs   av.it.:   9.1
      thresh= 6.355E-06 alpha_mix =  0.700 |ddv_scf|^2 =  1.171E-10

      iter #   6 total cpu time :    56.6 secs   av.it.:   8.8
      thresh= 1.082E-06 alpha_mix =  0.700 |ddv_scf|^2 =  7.177E-12

      iter #   7 total cpu time :    58.1 secs   av.it.:   7.5
      thresh= 2.679E-07 alpha_mix =  0.700 |ddv_scf|^2 =  2.602E-12

      iter #   8 total cpu time :    59.7 secs   av.it.:   7.8
      thresh= 1.613E-07 alpha_mix =  0.700 |ddv_scf|^2 =  1.027E-12

      iter #   9 total cpu time :    61.2 secs   av.it.:   7.6
      thresh= 1.013E-07 alpha_mix =  0.700 |ddv_scf|^2 =  5.988E-16

      iter #  10 total cpu time :    62.8 secs   av.it.:   8.4
      thresh= 2.447E-09 alpha_mix =  0.700 |ddv_scf|^2 =  3.313E-17

      iter #  11 total cpu time :    64.5 secs   av.it.:   8.9
      thresh= 5.756E-10 alpha_mix =  0.700 |ddv_scf|^2 =  5.659E-18

      iter #  12 total cpu time :    66.2 secs   av.it.:   9.1
      thresh= 2.379E-10 alpha_mix =  0.700 |ddv_scf|^2 =  1.344E-19

      iter #  13 total cpu time :    68.0 secs   av.it.:   9.2
      thresh= 3.666E-11 alpha_mix =  0.700 |ddv_scf|^2 =  3.617E-20

      iter #  14 total cpu time :    69.7 secs   av.it.:   9.2
      thresh= 1.902E-11 alpha_mix =  0.700 |ddv_scf|^2 =  5.224E-20

      iter #  15 total cpu time :    71.2 secs   av.it.:   7.8
      thresh= 2.286E-11 alpha_mix =  0.700 |ddv_scf|^2 =  1.298E-21

     End of self-consistent calculation

     Convergence has been achieved 


     Representation #   2 mode #   2

     Self-consistent Calculation

      iter #   1 total cpu time :    72.6 secs   av.it.:   5.3
      thresh= 1.000E-02 alpha_mix =  0.700 |ddv_scf|^2 =  3.956E-05

      iter #   2 total cpu time :    74.2 secs   av.it.:   8.3
      thresh= 6.290E-04 alpha_mix =  0.700 |ddv_scf|^2 =  2.537E-04

      iter #   3 total cpu time :    75.7 secs   av.it.:   7.1
      thresh= 1.593E-03 alpha_mix =  0.700 |ddv_scf|^2 =  8.972E-09

      iter #   4 total cpu time :    77.4 secs   av.it.:   9.3
      thresh= 9.472E-06 alpha_mix =  0.700 |ddv_scf|^2 =  4.039E-09

      iter #   5 total cpu time :    79.1 secs   av.it.:   9.1
      thresh= 6.355E-06 alpha_mix =  0.700 |ddv_scf|^2 =  1.171E-10

      iter #   6 total cpu time :    80.8 secs   av.it.:   8.8
      thresh= 1.082E-06 alpha_mix =  0.700 |ddv_scf|^2 =  7.177E-12

      iter #   7 total cpu time :    82.4 secs   av.it.:   7.5
      thresh= 2.679E-07 alpha_mix =  0.700 |ddv_scf|^2 =  2.602E-12

      iter #   8 total cpu time :    83.9 secs   av.it.:   7.8
      thresh= 1.613E-07 alpha_mix =  0.700 |ddv_scf|^2 =  1.027E-12

      iter #   9 total cpu time :    85.4 secs   av.it.:   7.6
      thresh= 1.013E-07 alpha_mix =  0.700 |ddv_scf|^2 =  5.988E-16

      iter #  10 total cpu time :    87.0 secs   av.it.:   8.4
      thresh= 2.447E-09 alpha_mix =  0.700 |ddv_scf|^2 =  3.313E-17

      iter #  11 total cpu time :    88.8 secs   av.it.:   8.9
      thresh= 5.756E-10 alpha_mix =  0.700 |ddv_scf|^2 =  5.659E-18

      iter #  12 total cpu time :    90.5 secs   av.it.:   9.1
      thresh= 2.379E-10 alpha_mix =  0.700 |ddv_scf|^2 =  1.344E-19

      iter #  13 total cpu time :    92.2 secs   av.it.:   9.2
      thresh= 3.666E-11 alpha_mix =  0.700 |ddv_scf|^2 =  3.617E-20

      iter #  14 total cpu time :    94.0 secs   av.it.:   9.2
      thresh= 1.902E-11 alpha_mix =  0.700 |ddv_scf|^2 =  5.224E-20

      iter #  15 total cpu time :    95.5 secs   av.it.:   7.8
      thresh= 2.286E-11 alpha_mix =  0.700 |ddv_scf|^2 =  1.298E-21

     End of self-consistent calculation

     Convergence has been achieved 


     Representation #   3 mode #   3

     Self-consistent Calculation

      iter #   1 total cpu time :    96.9 secs   av.it.:   5.0
      thresh= 1.000E-02 alpha_mix =  0.700 |ddv_scf|^2 =  1.324E-07

      iter #   2 total cpu time :    98.6 secs   av.it.:   9.2
      thresh= 3.639E-05 alpha_mix =  0.700 |ddv_scf|^2 =  5.882E-09

      iter #   3 total cpu time :   100.2 secs   av.it.:   7.7
      thresh= 7.669E-06 alpha_mix =  0.700 |ddv_scf|^2 =  2.468E-10

      iter #   4 total cpu time :   101.6 secs   av.it.:   7.1
      thresh= 1.571E-06 alpha_mix =  0.700 |ddv_scf|^2 =  1.352E-13

      iter #   5 total cpu time :   103.4 secs   av.it.:   9.2
      thresh= 3.677E-08 alpha_mix =  0.700 |ddv_scf|^2 =  4.714E-15

      iter #   6 total cpu time :   105.0 secs   av.it.:   8.4
      thresh= 6.866E-09 alpha_mix =  0.700 |ddv_scf|^2 =  2.293E-18

      iter #   7 total cpu time :   106.7 secs   av.it.:   8.8
      thresh= 1.514E-10 alpha_mix =  0.700 |ddv_scf|^2 =  2.421E-19

      iter #   8 total cpu time :   108.4 secs   av.it.:   9.0
      thresh= 4.920E-11 alpha_mix =  0.700 |ddv_scf|^2 =  3.606E-22

     End of self-consistent calculation

     Convergence has been achieved 


     Representation #   4 mode #   4

     Self-consistent Calculation

      iter #   1 total cpu time :   109.8 secs   av.it.:   5.0
      thresh= 1.000E-02 alpha_mix =  0.700 |ddv_scf|^2 =  1.324E-07

      iter #   2 total cpu time :   111.5 secs   av.it.:   9.2
      thresh= 3.639E-05 alpha_mix =  0.700 |ddv_scf|^2 =  5.882E-09

      iter #   3 total cpu time :   113.0 secs   av.it.:   7.7
      thresh= 7.669E-06 alpha_mix =  0.700 |ddv_scf|^2 =  2.468E-10

      iter #   4 total cpu time :   114.5 secs   av.it.:   7.1
      thresh= 1.571E-06 alpha_mix =  0.700 |ddv_scf|^2 =  1.352E-13

      iter #   5 total cpu time :   116.2 secs   av.it.:   9.2
      thresh= 3.677E-08 alpha_mix =  0.700 |ddv_scf|^2 =  4.714E-15

      iter #   6 total cpu time :   117.9 secs   av.it.:   8.4
      thresh= 6.866E-09 alpha_mix =  0.700 |ddv_scf|^2 =  2.293E-18

      iter #   7 total cpu time :   119.5 secs   av.it.:   8.8
      thresh= 1.514E-10 alpha_mix =  0.700 |ddv_scf|^2 =  2.421E-19

      iter #   8 total cpu time :   121.3 secs   av.it.:   9.0
      thresh= 4.920E-11 alpha_mix =  0.700 |ddv_scf|^2 =  3.606E-22

     End of self-consistent calculation

     Convergence has been achieved 


     Representation #   5 mode #   5

     Self-consistent Calculation

      iter #   1 total cpu time :   122.7 secs   av.it.:   5.6
      thresh= 1.000E-02 alpha_mix =  0.700 |ddv_scf|^2 =  5.167E-06

      iter #   2 total cpu time :   124.4 secs   av.it.:   8.7
      thresh= 2.273E-04 alpha_mix =  0.700 |ddv_scf|^2 =  2.219E-06

      iter #   3 total cpu time :   126.0 secs   av.it.:   8.1
      thresh= 1.489E-04 alpha_mix =  0.700 |ddv_scf|^2 =  4.147E-09

      iter #   4 total cpu time :   127.5 secs   av.it.:   7.6
      thresh= 6.440E-06 alpha_mix =  0.700 |ddv_scf|^2 =  1.650E-11

      iter #   5 total cpu time :   129.1 secs   av.it.:   8.5
      thresh= 4.061E-07 alpha_mix =  0.700 |ddv_scf|^2 =  2.350E-13

      iter #   6 total cpu time :   130.7 secs   av.it.:   8.3
      thresh= 4.847E-08 alpha_mix =  0.700 |ddv_scf|^2 =  1.299E-15

      iter #   7 total cpu time :   132.4 secs   av.it.:   8.6
      thresh= 3.604E-09 alpha_mix =  0.700 |ddv_scf|^2 =  1.238E-16

      iter #   8 total cpu time :   134.0 secs   av.it.:   8.2
      thresh= 1.112E-09 alpha_mix =  0.700 |ddv_scf|^2 =  4.510E-18

      iter #   9 total cpu time :   135.6 secs   av.it.:   8.3
      thresh= 2.124E-10 alpha_mix =  0.700 |ddv_scf|^2 =  2.493E-19

      iter #  10 total cpu time :   137.3 secs   av.it.:   8.3
      thresh= 4.993E-11 alpha_mix =  0.700 |ddv_scf|^2 =  4.508E-21

     End of self-consistent calculation

     Convergence has been achieved 


     Representation #   6 mode #   6

     Self-consistent Calculation

      iter #   1 total cpu time :   138.7 secs   av.it.:   5.6
      thresh= 1.000E-02 alpha_mix =  0.700 |ddv_scf|^2 =  5.167E-06

      iter #   2 total cpu time :   140.4 secs   av.it.:   8.7
      thresh= 2.273E-04 alpha_mix =  0.700 |ddv_scf|^2 =  2.219E-06

      iter #   3 total cpu time :   142.0 secs   av.it.:   8.1
      thresh= 1.489E-04 alpha_mix =  0.700 |ddv_scf|^2 =  4.147E-09

      iter #   4 total cpu time :   143.5 secs   av.it.:   7.6
      thresh= 6.440E-06 alpha_mix =  0.700 |ddv_scf|^2 =  1.650E-11

      iter #   5 total cpu time :   145.1 secs   av.it.:   8.5
      thresh= 4.061E-07 alpha_mix =  0.700 |ddv_scf|^2 =  2.350E-13

      iter #   6 total cpu time :   146.7 secs   av.it.:   8.3
      thresh= 4.847E-08 alpha_mix =  0.700 |ddv_scf|^2 =  1.299E-15

      iter #   7 total cpu time :   148.4 secs   av.it.:   8.6
      thresh= 3.604E-09 alpha_mix =  0.700 |ddv_scf|^2 =  1.238E-16

      iter #   8 total cpu time :   150.0 secs   av.it.:   8.2
      thresh= 1.112E-09 alpha_mix =  0.700 |ddv_scf|^2 =  4.510E-18

      iter #   9 total cpu time :   151.7 secs   av.it.:   8.3
      thresh= 2.124E-10 alpha_mix =  0.700 |ddv_scf|^2 =  2.493E-19

      iter #  10 total cpu time :   153.3 secs   av.it.:   8.3
      thresh= 4.993E-11 alpha_mix =  0.700 |ddv_scf|^2 =  4.508E-21

     End of self-consistent calculation

     Convergence has been achieved 
 
     Number of q in the star =    6
     List of q in the star:
          1   0.000000000   0.164957220   0.000000000
          2  -0.142857143   0.082478610   0.000000000
          3   0.142857143   0.082478610   0.000000000
          4  -0.142857143  -0.082478610   0.000000000
          5   0.142857143  -0.082478610   0.000000000
          6   0.000000000  -0.164957220   0.000000000

     Diagonalizing the dynamical matrix

     q = (    0.000000000   0.164957220   0.000000000 ) 

 **************************************************************************
     freq (    1) =       2.776297 [THz] =      92.607316 [cm-1]
     freq (    2) =       8.729707 [THz] =     291.191666 [cm-1]
     freq (    3) =      14.090015 [THz] =     469.992320 [cm-1]
     freq (    4) =      26.014583 [THz] =     867.753071 [cm-1]
     freq (    5) =      45.614889 [THz] =    1521.548912 [cm-1]
     freq (    6) =      47.865512 [THz] =    1596.621630 [cm-1]
 **************************************************************************

     Mode symmetry, C_2v (mm2)  point group:

     freq (   1-   1) =         92.6  [cm-1]   --> B_2  D_4  S_4      
     freq (   2-   2) =        291.2  [cm-1]   --> B_1  D_3  S_3      
     freq (   3-   3) =        470.0  [cm-1]   --> A_1  D_1  S_1      
     freq (   4-   4) =        867.8  [cm-1]   --> B_2  D_4  S_4      
     freq (   5-   5) =       1521.5  [cm-1]   --> B_1  D_3  S_3      
     freq (   6-   6) =       1596.6  [cm-1]   --> A_1  D_1  S_1      

     Calculation of q =    0.0000000   0.3299144   0.0000000
 
     Parallelization info
     --------------------
     sticks:   dense  smooth     PW     G-vecs:    dense   smooth      PW
     Min          20      20      8                 2643     2643     726
     Max          23      23      9                 2652     2652     767
     Sum         409     409    163                52949    52949   14787
 


     bravais-lattice index     =            4
     lattice parameter (alat)  =       4.6531  a.u.
     unit-cell volume          =     708.6620 (a.u.)^3
     number of atoms/cell      =            2
     number of atomic types    =            1
     number of electrons       =         8.00
     number of Kohn-Sham states=            8
     kinetic-energy cutoff     =      90.0000  Ry
     charge density cutoff     =     270.0000  Ry
     Exchange-correlation= PBE
                           (   1   4   3   4   0   0   0)

     celldm(1)=   4.653073  celldm(2)=   0.000000  celldm(3)=   8.122487
     celldm(4)=   0.000000  celldm(5)=   0.000000  celldm(6)=   0.000000

     crystal axes: (cart. coord. in units of alat)
               a(1) = (   1.000000   0.000000   0.000000 )  
               a(2) = (  -0.500000   0.866025   0.000000 )  
               a(3) = (   0.000000   0.000000   8.122487 )  

     reciprocal axes: (cart. coord. in units 2 pi/alat)
               b(1) = (  1.000000  0.577350  0.000000 )  
               b(2) = (  0.000000  1.154701  0.000000 )  
               b(3) = (  0.000000  0.000000  0.123115 )  


     PseudoPot. # 1 for C  read from file:
     ../Pseudo/C.pbe-rrkjus.UPF
     MD5 check sum: 00fb224312de0c5b6853bd333518df6f
     Pseudo is Ultrasoft, Zval =  4.0
     Generated by new atomic code, or converted to UPF format
     Using radial grid of  627 points,  4 beta functions with: 
                l(1) =   0
                l(2) =   0
                l(3) =   1
                l(4) =   1
     Q(r) pseudized with 0 coefficients 


     atomic species   valence    mass     pseudopotential
        C              4.00    12.01070     C ( 1.00)

     24 Sym. Ops., with inversion, found



   Cartesian axes

     site n.     atom                  positions (alat units)
         1           C   tau(   1) = (   0.0000000   0.5773503   4.0612436  )
         2           C   tau(   2) = (   0.5000000   0.2886751   4.0612436  )

     number of k points=   156  Methfessel-Paxton smearing, width (Ry)=  0.0200

     Number of k-points >= 100: set verbosity='high' to print them.

     Dense  grid:    52949 G-vectors     FFT dimensions: (  25,  25, 200)

     Estimated max dynamical RAM per process >       3.20 MB

     Estimated total dynamical RAM >      63.91 MB

     The potential is recalculated from file :
     ./_ph0/2Dgraphene.save/charge-density


     negative rho (up, down):  6.981E-05 0.000E+00
     Starting wfcs are    8 atomic wfcs

     Band Structure Calculation
     Davidson diagonalization with overlap

     ethr =  1.25E-10,  avg # of iterations = 25.7

     total cpu time spent up to now is       45.4 secs

     End of band structure calculation

     Number of k-points >= 100: set verbosity='high' to print the bands.

     the Fermi energy is    -2.3445 ev

     Writing output data file ./_ph0/2Dgraphene.save/

                                                                                

     bravais-lattice index     =            4
     lattice parameter (alat)  =       4.6531  a.u.
     unit-cell volume          =     708.6620 (a.u.)^3
     number of atoms/cell      =            2
     number of atomic types    =            1
     kinetic-energy cut-off    =      90.0000  Ry
     charge density cut-off    =     270.0000  Ry
     convergence threshold     =      1.0E-20
     beta                      =       0.7000
     number of iterations used =            4
     Exchange-correlation= PBE
                           (   1   4   3   4   0   0   0)


     celldm(1)=    4.65307  celldm(2)=    0.00000  celldm(3)=    8.12249
     celldm(4)=    0.00000  celldm(5)=    0.00000  celldm(6)=    0.00000

     crystal axes: (cart. coord. in units of alat)
               a(1) = (  1.0000  0.0000  0.0000 )  
               a(2) = ( -0.5000  0.8660  0.0000 )  
               a(3) = (  0.0000  0.0000  8.1225 )  

     reciprocal axes: (cart. coord. in units 2 pi/alat)
               b(1) = (  1.0000  0.5774  0.0000 )  
               b(2) = (  0.0000  1.1547  0.0000 )  
               b(3) = (  0.0000  0.0000  0.1231 )  


     Atoms inside the unit cell: 

     Cartesian axes

     site n.  atom      mass           positions (alat units)
        1     C   12.0107   tau(    1) = (    0.00000    0.57735    4.06124  )
        2     C   12.0107   tau(    2) = (    0.50000    0.28868    4.06124  )

     Computing dynamical matrix for 
                    q = (   0.0000000   0.3299144   0.0000000 )
 
      4 Sym.Ops. (no q -> -q+G )


     G cutoff =  148.0757  (   2646 G-vectors)     FFT grid: ( 25, 25,200)

     number of k points=   156  Methfessel-Paxton smearing, width (Ry)=  0.0200

     PseudoPot. # 1 for C  read from file:
     ../Pseudo/C.pbe-rrkjus.UPF
     MD5 check sum: 00fb224312de0c5b6853bd333518df6f
     Pseudo is Ultrasoft, Zval =  4.0
     Generated by new atomic code, or converted to UPF format
     Using radial grid of  627 points,  4 beta functions with: 
                l(1) =   0
                l(2) =   0
                l(3) =   1
                l(4) =   1
     Q(r) pseudized with 0 coefficients 


     Mode symmetry, C_2v (mm2)  point group:


     Atomic displacements:
     There are    6 irreducible representations

     Representation     1      1 modes -  To be done

     Representation     2      1 modes -  To be done

     Representation     3      1 modes -  To be done

     Representation     4      1 modes -  To be done

     Representation     5      1 modes -  To be done

     Representation     6      1 modes -  To be done



     Alpha used in Ewald sum =   2.8000
     PHONON       :   2m50.61s CPU   2m56.94s WALL



     Representation #   1 mode #   1

     Self-consistent Calculation

      iter #   1 total cpu time :   178.3 secs   av.it.:   5.6
      thresh= 1.000E-02 alpha_mix =  0.700 |ddv_scf|^2 =  9.972E-06

      iter #   2 total cpu time :   180.1 secs   av.it.:   9.0
      thresh= 3.158E-04 alpha_mix =  0.700 |ddv_scf|^2 =  3.440E-05

      iter #   3 total cpu time :   181.6 secs   av.it.:   8.0
      thresh= 5.865E-04 alpha_mix =  0.700 |ddv_scf|^2 =  3.006E-08

      iter #   4 total cpu time :   183.3 secs   av.it.:   9.1
      thresh= 1.734E-05 alpha_mix =  0.700 |ddv_scf|^2 =  3.542E-09

      iter #   5 total cpu time :   185.1 secs   av.it.:   9.1
      thresh= 5.951E-06 alpha_mix =  0.700 |ddv_scf|^2 =  1.347E-10

      iter #   6 total cpu time :   186.7 secs   av.it.:   8.9
      thresh= 1.161E-06 alpha_mix =  0.700 |ddv_scf|^2 =  1.229E-12

      iter #   7 total cpu time :   188.4 secs   av.it.:   8.5
      thresh= 1.108E-07 alpha_mix =  0.700 |ddv_scf|^2 =  9.530E-14

      iter #   8 total cpu time :   190.0 secs   av.it.:   8.5
      thresh= 3.087E-08 alpha_mix =  0.700 |ddv_scf|^2 =  6.448E-14

      iter #   9 total cpu time :   191.6 secs   av.it.:   8.1
      thresh= 2.539E-08 alpha_mix =  0.700 |ddv_scf|^2 =  2.281E-16

      iter #  10 total cpu time :   193.3 secs   av.it.:   8.8
      thresh= 1.510E-09 alpha_mix =  0.700 |ddv_scf|^2 =  7.663E-18

      iter #  11 total cpu time :   195.0 secs   av.it.:   9.1
      thresh= 2.768E-10 alpha_mix =  0.700 |ddv_scf|^2 =  1.398E-18

      iter #  12 total cpu time :   196.8 secs   av.it.:   9.2
      thresh= 1.182E-10 alpha_mix =  0.700 |ddv_scf|^2 =  4.096E-19

      iter #  13 total cpu time :   198.4 secs   av.it.:   8.8
      thresh= 6.400E-11 alpha_mix =  0.700 |ddv_scf|^2 =  8.438E-21

     End of self-consistent calculation

     Convergence has been achieved 


     Representation #   2 mode #   2

     Self-consistent Calculation

      iter #   1 total cpu time :   199.9 secs   av.it.:   5.6
      thresh= 1.000E-02 alpha_mix =  0.700 |ddv_scf|^2 =  9.972E-06

      iter #   2 total cpu time :   201.6 secs   av.it.:   9.0
      thresh= 3.158E-04 alpha_mix =  0.700 |ddv_scf|^2 =  3.440E-05

      iter #   3 total cpu time :   203.1 secs   av.it.:   8.0
      thresh= 5.865E-04 alpha_mix =  0.700 |ddv_scf|^2 =  3.006E-08

      iter #   4 total cpu time :   204.8 secs   av.it.:   9.1
      thresh= 1.734E-05 alpha_mix =  0.700 |ddv_scf|^2 =  3.542E-09

      iter #   5 total cpu time :   206.5 secs   av.it.:   9.1
      thresh= 5.951E-06 alpha_mix =  0.700 |ddv_scf|^2 =  1.347E-10

      iter #   6 total cpu time :   208.2 secs   av.it.:   8.9
      thresh= 1.161E-06 alpha_mix =  0.700 |ddv_scf|^2 =  1.229E-12

      iter #   7 total cpu time :   209.8 secs   av.it.:   8.5
      thresh= 1.108E-07 alpha_mix =  0.700 |ddv_scf|^2 =  9.530E-14

      iter #   8 total cpu time :   211.5 secs   av.it.:   8.5
      thresh= 3.087E-08 alpha_mix =  0.700 |ddv_scf|^2 =  6.448E-14

      iter #   9 total cpu time :   213.1 secs   av.it.:   8.1
      thresh= 2.539E-08 alpha_mix =  0.700 |ddv_scf|^2 =  2.281E-16

      iter #  10 total cpu time :   214.8 secs   av.it.:   8.8
      thresh= 1.510E-09 alpha_mix =  0.700 |ddv_scf|^2 =  7.663E-18

      iter #  11 total cpu time :   216.5 secs   av.it.:   9.1
      thresh= 2.768E-10 alpha_mix =  0.700 |ddv_scf|^2 =  1.398E-18

      iter #  12 total cpu time :   218.2 secs   av.it.:   9.2
      thresh= 1.182E-10 alpha_mix =  0.700 |ddv_scf|^2 =  4.096E-19

      iter #  13 total cpu time :   219.9 secs   av.it.:   8.8
      thresh= 6.400E-11 alpha_mix =  0.700 |ddv_scf|^2 =  8.438E-21

     End of self-consistent calculation

     Convergence has been achieved 


     Representation #   3 mode #   3

     Self-consistent Calculation

      iter #   1 total cpu time :   221.2 secs   av.it.:   5.0
      thresh= 1.000E-02 alpha_mix =  0.700 |ddv_scf|^2 =  1.575E-07

      iter #   2 total cpu time :   222.9 secs   av.it.:   9.0
      thresh= 3.968E-05 alpha_mix =  0.700 |ddv_scf|^2 =  5.921E-09

      iter #   3 total cpu time :   224.5 secs   av.it.:   8.1
      thresh= 7.694E-06 alpha_mix =  0.700 |ddv_scf|^2 =  3.738E-10

      iter #   4 total cpu time :   226.1 secs   av.it.:   7.8
      thresh= 1.933E-06 alpha_mix =  0.700 |ddv_scf|^2 =  1.874E-13

      iter #   5 total cpu time :   227.8 secs   av.it.:   9.1
      thresh= 4.329E-08 alpha_mix =  0.700 |ddv_scf|^2 =  4.011E-15

      iter #   6 total cpu time :   229.4 secs   av.it.:   8.3
      thresh= 6.333E-09 alpha_mix =  0.700 |ddv_scf|^2 =  4.774E-18

      iter #   7 total cpu time :   231.1 secs   av.it.:   9.1
      thresh= 2.185E-10 alpha_mix =  0.700 |ddv_scf|^2 =  2.073E-19

      iter #   8 total cpu time :   232.8 secs   av.it.:   8.9
      thresh= 4.553E-11 alpha_mix =  0.700 |ddv_scf|^2 =  2.315E-21

     End of self-consistent calculation

     Convergence has been achieved 


     Representation #   4 mode #   4

     Self-consistent Calculation

      iter #   1 total cpu time :   234.1 secs   av.it.:   5.0
      thresh= 1.000E-02 alpha_mix =  0.700 |ddv_scf|^2 =  1.575E-07

      iter #   2 total cpu time :   235.8 secs   av.it.:   9.0
      thresh= 3.968E-05 alpha_mix =  0.700 |ddv_scf|^2 =  5.921E-09

      iter #   3 total cpu time :   237.4 secs   av.it.:   8.1
      thresh= 7.694E-06 alpha_mix =  0.700 |ddv_scf|^2 =  3.738E-10

      iter #   4 total cpu time :   239.0 secs   av.it.:   7.8
      thresh= 1.933E-06 alpha_mix =  0.700 |ddv_scf|^2 =  1.874E-13

      iter #   5 total cpu time :   240.7 secs   av.it.:   9.1
      thresh= 4.329E-08 alpha_mix =  0.700 |ddv_scf|^2 =  4.011E-15

      iter #   6 total cpu time :   242.4 secs   av.it.:   8.3
      thresh= 6.333E-09 alpha_mix =  0.700 |ddv_scf|^2 =  4.774E-18

      iter #   7 total cpu time :   244.1 secs   av.it.:   9.1
      thresh= 2.185E-10 alpha_mix =  0.700 |ddv_scf|^2 =  2.073E-19

      iter #   8 total cpu time :   245.8 secs   av.it.:   8.9
      thresh= 4.553E-11 alpha_mix =  0.700 |ddv_scf|^2 =  2.315E-21

     End of self-consistent calculation

     Convergence has been achieved 


     Representation #   5 mode #   5

     Self-consistent Calculation

      iter #   1 total cpu time :   247.1 secs   av.it.:   5.4
      thresh= 1.000E-02 alpha_mix =  0.700 |ddv_scf|^2 =  9.155E-07

      iter #   2 total cpu time :   248.9 secs   av.it.:   9.0
      thresh= 9.568E-05 alpha_mix =  0.700 |ddv_scf|^2 =  9.770E-08

      iter #   3 total cpu time :   250.5 secs   av.it.:   8.8
      thresh= 3.126E-05 alpha_mix =  0.700 |ddv_scf|^2 =  2.399E-09

      iter #   4 total cpu time :   252.0 secs   av.it.:   7.6
      thresh= 4.898E-06 alpha_mix =  0.700 |ddv_scf|^2 =  1.308E-12

      iter #   5 total cpu time :   253.7 secs   av.it.:   8.7
      thresh= 1.143E-07 alpha_mix =  0.700 |ddv_scf|^2 =  1.940E-14

      iter #   6 total cpu time :   255.3 secs   av.it.:   8.2
      thresh= 1.393E-08 alpha_mix =  0.700 |ddv_scf|^2 =  5.348E-17

      iter #   7 total cpu time :   257.0 secs   av.it.:   8.8
      thresh= 7.313E-10 alpha_mix =  0.700 |ddv_scf|^2 =  2.069E-18

      iter #   8 total cpu time :   258.7 secs   av.it.:   9.0
      thresh= 1.438E-10 alpha_mix =  0.700 |ddv_scf|^2 =  1.397E-19

      iter #   9 total cpu time :   260.3 secs   av.it.:   8.8
      thresh= 3.738E-11 alpha_mix =  0.700 |ddv_scf|^2 =  3.850E-21

     End of self-consistent calculation

     Convergence has been achieved 


     Representation #   6 mode #   6

     Self-consistent Calculation

      iter #   1 total cpu time :   261.7 secs   av.it.:   5.4
      thresh= 1.000E-02 alpha_mix =  0.700 |ddv_scf|^2 =  9.155E-07

      iter #   2 total cpu time :   263.4 secs   av.it.:   9.0
      thresh= 9.568E-05 alpha_mix =  0.700 |ddv_scf|^2 =  9.770E-08

      iter #   3 total cpu time :   265.1 secs   av.it.:   8.8
      thresh= 3.126E-05 alpha_mix =  0.700 |ddv_scf|^2 =  2.399E-09

      iter #   4 total cpu time :   266.6 secs   av.it.:   7.6
      thresh= 4.898E-06 alpha_mix =  0.700 |ddv_scf|^2 =  1.308E-12

      iter #   5 total cpu time :   268.3 secs   av.it.:   8.7
      thresh= 1.143E-07 alpha_mix =  0.700 |ddv_scf|^2 =  1.940E-14

      iter #   6 total cpu time :   269.9 secs   av.it.:   8.2
      thresh= 1.393E-08 alpha_mix =  0.700 |ddv_scf|^2 =  5.348E-17

      iter #   7 total cpu time :   271.6 secs   av.it.:   8.8
      thresh= 7.313E-10 alpha_mix =  0.700 |ddv_scf|^2 =  2.069E-18

      iter #   8 total cpu time :   273.3 secs   av.it.:   9.0
      thresh= 1.438E-10 alpha_mix =  0.700 |ddv_scf|^2 =  1.397E-19

      iter #   9 total cpu time :   275.0 secs   av.it.:   8.8
      thresh= 3.738E-11 alpha_mix =  0.700 |ddv_scf|^2 =  3.850E-21

     End of self-consistent calculation

     Convergence has been achieved 
 
     Number of q in the star =    6
     List of q in the star:
          1   0.000000000   0.329914440   0.000000000
          2  -0.285714286   0.164957220   0.000000000
          3   0.285714286   0.164957220   0.000000000
          4  -0.285714286  -0.164957220   0.000000000
          5   0.285714286  -0.164957220   0.000000000
          6   0.000000000  -0.329914440   0.000000000

     Diagonalizing the dynamical matrix

     q = (    0.000000000   0.329914440   0.000000000 ) 

 **************************************************************************
     freq (    1) =       6.599089 [THz] =     220.121919 [cm-1]
     freq (    2) =      15.185611 [THz] =     506.537460 [cm-1]
     freq (    3) =      24.226376 [THz] =     808.104910 [cm-1]
     freq (    4) =      26.478867 [THz] =     883.239925 [cm-1]
     freq (    5) =      43.384161 [THz] =    1447.139841 [cm-1]
     freq (    6) =      46.958215 [THz] =    1566.357451 [cm-1]
 **************************************************************************

     Mode symmetry, C_2v (mm2)  point group:

     freq (   1-   1) =        220.1  [cm-1]   --> B_2  D_4  S_4      
     freq (   2-   2) =        506.5  [cm-1]   --> B_1  D_3  S_3      
     freq (   3-   3) =        808.1  [cm-1]   --> B_2  D_4  S_4      
     freq (   4-   4) =        883.2  [cm-1]   --> A_1  D_1  S_1      
     freq (   5-   5) =       1447.1  [cm-1]   --> B_1  D_3  S_3      
     freq (   6-   6) =       1566.4  [cm-1]   --> A_1  D_1  S_1      

     Calculation of q =    0.0000000   0.4948717   0.0000000
 
     Parallelization info
     --------------------
     sticks:   dense  smooth     PW     G-vecs:    dense   smooth      PW
     Min          20      20      9                 2643     2643     787
     Max          23      23     10                 2654     2654     807
     Sum         409     409    187                52949    52949   15919
 


     bravais-lattice index     =            4
     lattice parameter (alat)  =       4.6531  a.u.
     unit-cell volume          =     708.6620 (a.u.)^3
     number of atoms/cell      =            2
     number of atomic types    =            1
     number of electrons       =         8.00
     number of Kohn-Sham states=            8
     kinetic-energy cutoff     =      90.0000  Ry
     charge density cutoff     =     270.0000  Ry
     Exchange-correlation= PBE
                           (   1   4   3   4   0   0   0)

     celldm(1)=   4.653073  celldm(2)=   0.000000  celldm(3)=   8.122487
     celldm(4)=   0.000000  celldm(5)=   0.000000  celldm(6)=   0.000000

     crystal axes: (cart. coord. in units of alat)
               a(1) = (   1.000000   0.000000   0.000000 )  
               a(2) = (  -0.500000   0.866025   0.000000 )  
               a(3) = (   0.000000   0.000000   8.122487 )  

     reciprocal axes: (cart. coord. in units 2 pi/alat)
               b(1) = (  1.000000  0.577350  0.000000 )  
               b(2) = (  0.000000  1.154701  0.000000 )  
               b(3) = (  0.000000  0.000000  0.123115 )  


     PseudoPot. # 1 for C  read from file:
     ../Pseudo/C.pbe-rrkjus.UPF
     MD5 check sum: 00fb224312de0c5b6853bd333518df6f
     Pseudo is Ultrasoft, Zval =  4.0
     Generated by new atomic code, or converted to UPF format
     Using radial grid of  627 points,  4 beta functions with: 
                l(1) =   0
                l(2) =   0
                l(3) =   1
                l(4) =   1
     Q(r) pseudized with 0 coefficients 


     atomic species   valence    mass     pseudopotential
        C              4.00    12.01070     C ( 1.00)

     24 Sym. Ops., with inversion, found



   Cartesian axes

     site n.     atom                  positions (alat units)
         1           C   tau(   1) = (   0.0000000   0.5773503   4.0612436  )
         2           C   tau(   2) = (   0.5000000   0.2886751   4.0612436  )

     number of k points=   156  Methfessel-Paxton smearing, width (Ry)=  0.0200

     Number of k-points >= 100: set verbosity='high' to print them.

     Dense  grid:    52949 G-vectors     FFT dimensions: (  25,  25, 200)

     Estimated max dynamical RAM per process >       3.21 MB

     Estimated total dynamical RAM >      64.16 MB

     The potential is recalculated from file :
     ./_ph0/2Dgraphene.save/charge-density


     negative rho (up, down):  6.981E-05 0.000E+00
     Starting wfcs are    8 atomic wfcs

     Band Structure Calculation
     Davidson diagonalization with overlap

     ethr =  1.25E-10,  avg # of iterations = 25.4

     total cpu time spent up to now is       68.1 secs

     End of band structure calculation

     Number of k-points >= 100: set verbosity='high' to print the bands.

     the Fermi energy is    -2.3445 ev

     Writing output data file ./_ph0/2Dgraphene.save/

                                                                                

     bravais-lattice index     =            4
     lattice parameter (alat)  =       4.6531  a.u.
     unit-cell volume          =     708.6620 (a.u.)^3
     number of atoms/cell      =            2
     number of atomic types    =            1
     kinetic-energy cut-off    =      90.0000  Ry
     charge density cut-off    =     270.0000  Ry
     convergence threshold     =      1.0E-20
     beta                      =       0.7000
     number of iterations used =            4
     Exchange-correlation= PBE
                           (   1   4   3   4   0   0   0)


     celldm(1)=    4.65307  celldm(2)=    0.00000  celldm(3)=    8.12249
     celldm(4)=    0.00000  celldm(5)=    0.00000  celldm(6)=    0.00000

     crystal axes: (cart. coord. in units of alat)
               a(1) = (  1.0000  0.0000  0.0000 )  
               a(2) = ( -0.5000  0.8660  0.0000 )  
               a(3) = (  0.0000  0.0000  8.1225 )  

     reciprocal axes: (cart. coord. in units 2 pi/alat)
               b(1) = (  1.0000  0.5774  0.0000 )  
               b(2) = (  0.0000  1.1547  0.0000 )  
               b(3) = (  0.0000  0.0000  0.1231 )  


     Atoms inside the unit cell: 

     Cartesian axes

     site n.  atom      mass           positions (alat units)
        1     C   12.0107   tau(    1) = (    0.00000    0.57735    4.06124  )
        2     C   12.0107   tau(    2) = (    0.50000    0.28868    4.06124  )

     Computing dynamical matrix for 
                    q = (   0.0000000   0.4948717   0.0000000 )
 
      4 Sym.Ops. (no q -> -q+G )


     G cutoff =  148.0757  (   2654 G-vectors)     FFT grid: ( 25, 25,200)

     number of k points=   156  Methfessel-Paxton smearing, width (Ry)=  0.0200

     PseudoPot. # 1 for C  read from file:
     ../Pseudo/C.pbe-rrkjus.UPF
     MD5 check sum: 00fb224312de0c5b6853bd333518df6f
     Pseudo is Ultrasoft, Zval =  4.0
     Generated by new atomic code, or converted to UPF format
     Using radial grid of  627 points,  4 beta functions with: 
                l(1) =   0
                l(2) =   0
                l(3) =   1
                l(4) =   1
     Q(r) pseudized with 0 coefficients 


     Mode symmetry, C_2v (mm2)  point group:


     Atomic displacements:
     There are    6 irreducible representations

     Representation     1      1 modes -  To be done

     Representation     2      1 modes -  To be done

     Representation     3      1 modes -  To be done

     Representation     4      1 modes -  To be done

     Representation     5      1 modes -  To be done

     Representation     6      1 modes -  To be done



     Alpha used in Ewald sum =   2.8000
     PHONON       :   4m47.71s CPU   4m58.58s WALL



     Representation #   1 mode #   1

     Self-consistent Calculation

      iter #   1 total cpu time :   300.0 secs   av.it.:   5.5
      thresh= 1.000E-02 alpha_mix =  0.700 |ddv_scf|^2 =  3.418E-06

      iter #   2 total cpu time :   301.9 secs   av.it.:   9.5
      thresh= 1.849E-04 alpha_mix =  0.700 |ddv_scf|^2 =  4.787E-06

      iter #   3 total cpu time :   303.6 secs   av.it.:   8.7
      thresh= 2.188E-04 alpha_mix =  0.700 |ddv_scf|^2 =  4.011E-08

      iter #   4 total cpu time :   305.4 secs   av.it.:   9.0
      thresh= 2.003E-05 alpha_mix =  0.700 |ddv_scf|^2 =  3.464E-09

      iter #   5 total cpu time :   307.2 secs   av.it.:   8.9
      thresh= 5.886E-06 alpha_mix =  0.700 |ddv_scf|^2 =  1.646E-10

      iter #   6 total cpu time :   308.9 secs   av.it.:   8.9
      thresh= 1.283E-06 alpha_mix =  0.700 |ddv_scf|^2 =  1.070E-13

      iter #   7 total cpu time :   310.7 secs   av.it.:   9.3
      thresh= 3.271E-08 alpha_mix =  0.700 |ddv_scf|^2 =  8.410E-15

      iter #   8 total cpu time :   312.6 secs   av.it.:   9.3
      thresh= 9.170E-09 alpha_mix =  0.700 |ddv_scf|^2 =  9.746E-16

      iter #   9 total cpu time :   314.3 secs   av.it.:   9.0
      thresh= 3.122E-09 alpha_mix =  0.700 |ddv_scf|^2 =  5.194E-16

      iter #  10 total cpu time :   316.1 secs   av.it.:   8.7
      thresh= 2.279E-09 alpha_mix =  0.700 |ddv_scf|^2 =  5.527E-17

      iter #  11 total cpu time :   317.9 secs   av.it.:   9.1
      thresh= 7.435E-10 alpha_mix =  0.700 |ddv_scf|^2 =  9.841E-18

      iter #  12 total cpu time :   319.6 secs   av.it.:   8.9
      thresh= 3.137E-10 alpha_mix =  0.700 |ddv_scf|^2 =  3.439E-19

      iter #  13 total cpu time :   321.5 secs   av.it.:   9.2
      thresh= 5.864E-11 alpha_mix =  0.700 |ddv_scf|^2 =  9.571E-21

     End of self-consistent calculation

     Convergence has been achieved 


     Representation #   2 mode #   2

     Self-consistent Calculation

      iter #   1 total cpu time :   322.9 secs   av.it.:   5.5
      thresh= 1.000E-02 alpha_mix =  0.700 |ddv_scf|^2 =  3.418E-06

      iter #   2 total cpu time :   324.8 secs   av.it.:   9.5
      thresh= 1.849E-04 alpha_mix =  0.700 |ddv_scf|^2 =  4.787E-06

      iter #   3 total cpu time :   326.5 secs   av.it.:   8.7
      thresh= 2.188E-04 alpha_mix =  0.700 |ddv_scf|^2 =  4.011E-08

      iter #   4 total cpu time :   328.3 secs   av.it.:   9.0
      thresh= 2.003E-05 alpha_mix =  0.700 |ddv_scf|^2 =  3.464E-09

      iter #   5 total cpu time :   330.0 secs   av.it.:   8.9
      thresh= 5.886E-06 alpha_mix =  0.700 |ddv_scf|^2 =  1.646E-10

      iter #   6 total cpu time :   331.8 secs   av.it.:   8.9
      thresh= 1.283E-06 alpha_mix =  0.700 |ddv_scf|^2 =  1.070E-13

      iter #   7 total cpu time :   333.6 secs   av.it.:   9.3
      thresh= 3.271E-08 alpha_mix =  0.700 |ddv_scf|^2 =  8.410E-15

      iter #   8 total cpu time :   335.4 secs   av.it.:   9.3
      thresh= 9.170E-09 alpha_mix =  0.700 |ddv_scf|^2 =  9.746E-16

      iter #   9 total cpu time :   337.2 secs   av.it.:   9.0
      thresh= 3.122E-09 alpha_mix =  0.700 |ddv_scf|^2 =  5.194E-16

      iter #  10 total cpu time :   338.9 secs   av.it.:   8.7
      thresh= 2.279E-09 alpha_mix =  0.700 |ddv_scf|^2 =  5.527E-17

      iter #  11 total cpu time :   340.7 secs   av.it.:   9.1
      thresh= 7.435E-10 alpha_mix =  0.700 |ddv_scf|^2 =  9.841E-18

      iter #  12 total cpu time :   342.5 secs   av.it.:   8.9
      thresh= 3.137E-10 alpha_mix =  0.700 |ddv_scf|^2 =  3.439E-19

      iter #  13 total cpu time :   344.3 secs   av.it.:   9.2
      thresh= 5.864E-11 alpha_mix =  0.700 |ddv_scf|^2 =  9.571E-21

     End of self-consistent calculation

     Convergence has been achieved 


     Representation #   3 mode #   3

     Self-consistent Calculation

      iter #   1 total cpu time :   345.7 secs   av.it.:   4.9
      thresh= 1.000E-02 alpha_mix =  0.700 |ddv_scf|^2 =  1.774E-07

      iter #   2 total cpu time :   347.5 secs   av.it.:   9.1
      thresh= 4.212E-05 alpha_mix =  0.700 |ddv_scf|^2 =  6.059E-09

      iter #   3 total cpu time :   349.2 secs   av.it.:   8.4
      thresh= 7.784E-06 alpha_mix =  0.700 |ddv_scf|^2 =  4.529E-10

      iter #   4 total cpu time :   350.8 secs   av.it.:   7.8
      thresh= 2.128E-06 alpha_mix =  0.700 |ddv_scf|^2 =  1.576E-13

      iter #   5 total cpu time :   352.6 secs   av.it.:   9.0
      thresh= 3.970E-08 alpha_mix =  0.700 |ddv_scf|^2 =  2.706E-15

      iter #   6 total cpu time :   354.3 secs   av.it.:   8.4
      thresh= 5.202E-09 alpha_mix =  0.700 |ddv_scf|^2 =  1.383E-17

      iter #   7 total cpu time :   356.0 secs   av.it.:   9.0
      thresh= 3.719E-10 alpha_mix =  0.700 |ddv_scf|^2 =  1.888E-19

      iter #   8 total cpu time :   357.8 secs   av.it.:   9.0
      thresh= 4.346E-11 alpha_mix =  0.700 |ddv_scf|^2 =  7.571E-21

     End of self-consistent calculation

     Convergence has been achieved 


     Representation #   4 mode #   4

     Self-consistent Calculation

      iter #   1 total cpu time :   359.2 secs   av.it.:   4.9
      thresh= 1.000E-02 alpha_mix =  0.700 |ddv_scf|^2 =  1.774E-07

      iter #   2 total cpu time :   361.0 secs   av.it.:   9.1
      thresh= 4.212E-05 alpha_mix =  0.700 |ddv_scf|^2 =  6.059E-09

      iter #   3 total cpu time :   362.7 secs   av.it.:   8.4
      thresh= 7.784E-06 alpha_mix =  0.700 |ddv_scf|^2 =  4.529E-10

      iter #   4 total cpu time :   364.3 secs   av.it.:   7.8
      thresh= 2.128E-06 alpha_mix =  0.700 |ddv_scf|^2 =  1.576E-13

      iter #   5 total cpu time :   366.1 secs   av.it.:   9.0
      thresh= 3.970E-08 alpha_mix =  0.700 |ddv_scf|^2 =  2.706E-15

      iter #   6 total cpu time :   367.8 secs   av.it.:   8.4
      thresh= 5.202E-09 alpha_mix =  0.700 |ddv_scf|^2 =  1.383E-17

      iter #   7 total cpu time :   369.6 secs   av.it.:   9.0
      thresh= 3.719E-10 alpha_mix =  0.700 |ddv_scf|^2 =  1.888E-19

      iter #   8 total cpu time :   371.4 secs   av.it.:   9.0
      thresh= 4.346E-11 alpha_mix =  0.700 |ddv_scf|^2 =  7.571E-21

     End of self-consistent calculation

     Convergence has been achieved 


     Representation #   5 mode #   5

     Self-consistent Calculation

      iter #   1 total cpu time :   372.8 secs   av.it.:   5.3
      thresh= 1.000E-02 alpha_mix =  0.700 |ddv_scf|^2 =  3.443E-07

      iter #   2 total cpu time :   374.6 secs   av.it.:   9.1
      thresh= 5.868E-05 alpha_mix =  0.700 |ddv_scf|^2 =  1.570E-08

      iter #   3 total cpu time :   376.4 secs   av.it.:   8.8
      thresh= 1.253E-05 alpha_mix =  0.700 |ddv_scf|^2 =  1.210E-09

      iter #   4 total cpu time :   378.0 secs   av.it.:   8.1
      thresh= 3.479E-06 alpha_mix =  0.700 |ddv_scf|^2 =  9.493E-13

      iter #   5 total cpu time :   379.7 secs   av.it.:   8.4
      thresh= 9.743E-08 alpha_mix =  0.700 |ddv_scf|^2 =  1.675E-14

      iter #   6 total cpu time :   381.4 secs   av.it.:   8.3
      thresh= 1.294E-08 alpha_mix =  0.700 |ddv_scf|^2 =  1.170E-17

      iter #   7 total cpu time :   383.3 secs   av.it.:   9.1
      thresh= 3.420E-10 alpha_mix =  0.700 |ddv_scf|^2 =  6.175E-19

      iter #   8 total cpu time :   385.1 secs   av.it.:   9.1
      thresh= 7.858E-11 alpha_mix =  0.700 |ddv_scf|^2 =  1.549E-20

      iter #   9 total cpu time :   386.8 secs   av.it.:   8.6
      thresh= 1.245E-11 alpha_mix =  0.700 |ddv_scf|^2 =  4.295E-23

     End of self-consistent calculation

     Convergence has been achieved 


     Representation #   6 mode #   6

     Self-consistent Calculation

      iter #   1 total cpu time :   388.3 secs   av.it.:   5.3
      thresh= 1.000E-02 alpha_mix =  0.700 |ddv_scf|^2 =  3.443E-07

      iter #   2 total cpu time :   390.1 secs   av.it.:   9.1
      thresh= 5.868E-05 alpha_mix =  0.700 |ddv_scf|^2 =  1.570E-08

      iter #   3 total cpu time :   391.9 secs   av.it.:   8.8
      thresh= 1.253E-05 alpha_mix =  0.700 |ddv_scf|^2 =  1.210E-09

      iter #   4 total cpu time :   393.5 secs   av.it.:   8.1
      thresh= 3.479E-06 alpha_mix =  0.700 |ddv_scf|^2 =  9.493E-13

      iter #   5 total cpu time :   395.2 secs   av.it.:   8.4
      thresh= 9.743E-08 alpha_mix =  0.700 |ddv_scf|^2 =  1.675E-14

      iter #   6 total cpu time :   396.9 secs   av.it.:   8.3
      thresh= 1.294E-08 alpha_mix =  0.700 |ddv_scf|^2 =  1.170E-17

      iter #   7 total cpu time :   398.7 secs   av.it.:   9.1
      thresh= 3.420E-10 alpha_mix =  0.700 |ddv_scf|^2 =  6.175E-19

      iter #   8 total cpu time :   400.6 secs   av.it.:   9.1
      thresh= 7.858E-11 alpha_mix =  0.700 |ddv_scf|^2 =  1.549E-20

      iter #   9 total cpu time :   402.3 secs   av.it.:   8.6
      thresh= 1.245E-11 alpha_mix =  0.700 |ddv_scf|^2 =  4.295E-23

     End of self-consistent calculation

     Convergence has been achieved 
 
     Number of q in the star =    6
     List of q in the star:
          1   0.000000000   0.494871659   0.000000000
          2  -0.428571429   0.247435830   0.000000000
          3   0.428571429   0.247435830   0.000000000
          4  -0.428571429  -0.247435830   0.000000000
          5   0.428571429  -0.247435830   0.000000000
          6   0.000000000  -0.494871659   0.000000000

     Diagonalizing the dynamical matrix

     q = (    0.000000000   0.494871659   0.000000000 ) 

 **************************************************************************
     freq (    1) =      12.596223 [THz] =     420.164776 [cm-1]
     freq (    2) =      18.358460 [THz] =     612.372320 [cm-1]
     freq (    3) =      20.539355 [THz] =     685.119138 [cm-1]
     freq (    4) =      36.215977 [THz] =    1208.034974 [cm-1]
     freq (    5) =      41.903860 [THz] =    1397.762304 [cm-1]
     freq (    6) =      43.119784 [THz] =    1438.321176 [cm-1]
 **************************************************************************

     Mode symmetry, C_2v (mm2)  point group:

     freq (   1-   1) =        420.2  [cm-1]   --> B_2  D_4  S_4      
     freq (   2-   2) =        612.4  [cm-1]   --> B_1  D_3  S_3      
     freq (   3-   3) =        685.1  [cm-1]   --> B_2  D_4  S_4      
     freq (   4-   4) =       1208.0  [cm-1]   --> A_1  D_1  S_1      
     freq (   5-   5) =       1397.8  [cm-1]   --> B_1  D_3  S_3      
     freq (   6-   6) =       1438.3  [cm-1]   --> A_1  D_1  S_1      

     Calculation of q =    0.1428571   0.2474358   0.0000000
 
     Parallelization info
     --------------------
     sticks:   dense  smooth     PW     G-vecs:    dense   smooth      PW
     Min          20      20      8                 2643     2643     726
     Max          23      23      9                 2652     2652     767
     Sum         409     409    163                52949    52949   14787
 


     bravais-lattice index     =            4
     lattice parameter (alat)  =       4.6531  a.u.
     unit-cell volume          =     708.6620 (a.u.)^3
     number of atoms/cell      =            2
     number of atomic types    =            1
     number of electrons       =         8.00
     number of Kohn-Sham states=            8
     kinetic-energy cutoff     =      90.0000  Ry
     charge density cutoff     =     270.0000  Ry
     Exchange-correlation= PBE
                           (   1   4   3   4   0   0   0)

     celldm(1)=   4.653073  celldm(2)=   0.000000  celldm(3)=   8.122487
     celldm(4)=   0.000000  celldm(5)=   0.000000  celldm(6)=   0.000000

     crystal axes: (cart. coord. in units of alat)
               a(1) = (   1.000000   0.000000   0.000000 )  
               a(2) = (  -0.500000   0.866025   0.000000 )  
               a(3) = (   0.000000   0.000000   8.122487 )  

     reciprocal axes: (cart. coord. in units 2 pi/alat)
               b(1) = (  1.000000  0.577350  0.000000 )  
               b(2) = (  0.000000  1.154701  0.000000 )  
               b(3) = (  0.000000  0.000000  0.123115 )  


     PseudoPot. # 1 for C  read from file:
     ../Pseudo/C.pbe-rrkjus.UPF
     MD5 check sum: 00fb224312de0c5b6853bd333518df6f
     Pseudo is Ultrasoft, Zval =  4.0
     Generated by new atomic code, or converted to UPF format
     Using radial grid of  627 points,  4 beta functions with: 
                l(1) =   0
                l(2) =   0
                l(3) =   1
                l(4) =   1
     Q(r) pseudized with 0 coefficients 


     atomic species   valence    mass     pseudopotential
        C              4.00    12.01070     C ( 1.00)

     24 Sym. Ops., with inversion, found



   Cartesian axes

     site n.     atom                  positions (alat units)
         1           C   tau(   1) = (   0.0000000   0.5773503   4.0612436  )
         2           C   tau(   2) = (   0.5000000   0.2886751   4.0612436  )

     number of k points=   156  Methfessel-Paxton smearing, width (Ry)=  0.0200

     Number of k-points >= 100: set verbosity='high' to print them.

     Dense  grid:    52949 G-vectors     FFT dimensions: (  25,  25, 200)

     Estimated max dynamical RAM per process >       3.19 MB

     Estimated total dynamical RAM >      63.88 MB

     The potential is recalculated from file :
     ./_ph0/2Dgraphene.save/charge-density


     negative rho (up, down):  6.981E-05 0.000E+00
     Starting wfcs are    8 atomic wfcs

     Band Structure Calculation
     Davidson diagonalization with overlap

     ethr =  1.25E-10,  avg # of iterations = 25.1

     total cpu time spent up to now is       90.3 secs

     End of band structure calculation

     Number of k-points >= 100: set verbosity='high' to print the bands.

     the Fermi energy is    -2.3445 ev

     Writing output data file ./_ph0/2Dgraphene.save/

                                                                                

     bravais-lattice index     =            4
     lattice parameter (alat)  =       4.6531  a.u.
     unit-cell volume          =     708.6620 (a.u.)^3
     number of atoms/cell      =            2
     number of atomic types    =            1
     kinetic-energy cut-off    =      90.0000  Ry
     charge density cut-off    =     270.0000  Ry
     convergence threshold     =      1.0E-20
     beta                      =       0.7000
     number of iterations used =            4
     Exchange-correlation= PBE
                           (   1   4   3   4   0   0   0)


     celldm(1)=    4.65307  celldm(2)=    0.00000  celldm(3)=    8.12249
     celldm(4)=    0.00000  celldm(5)=    0.00000  celldm(6)=    0.00000

     crystal axes: (cart. coord. in units of alat)
               a(1) = (  1.0000  0.0000  0.0000 )  
               a(2) = ( -0.5000  0.8660  0.0000 )  
               a(3) = (  0.0000  0.0000  8.1225 )  

     reciprocal axes: (cart. coord. in units 2 pi/alat)
               b(1) = (  1.0000  0.5774  0.0000 )  
               b(2) = (  0.0000  1.1547  0.0000 )  
               b(3) = (  0.0000  0.0000  0.1231 )  


     Atoms inside the unit cell: 

     Cartesian axes

     site n.  atom      mass           positions (alat units)
        1     C   12.0107   tau(    1) = (    0.00000    0.57735    4.06124  )
        2     C   12.0107   tau(    2) = (    0.50000    0.28868    4.06124  )

     Computing dynamical matrix for 
                    q = (   0.1428571   0.2474358   0.0000000 )
 
      4 Sym.Ops. (no q -> -q+G )


     G cutoff =  148.0757  (   2646 G-vectors)     FFT grid: ( 25, 25,200)

     number of k points=   156  Methfessel-Paxton smearing, width (Ry)=  0.0200

     PseudoPot. # 1 for C  read from file:
     ../Pseudo/C.pbe-rrkjus.UPF
     MD5 check sum: 00fb224312de0c5b6853bd333518df6f
     Pseudo is Ultrasoft, Zval =  4.0
     Generated by new atomic code, or converted to UPF format
     Using radial grid of  627 points,  4 beta functions with: 
                l(1) =   0
                l(2) =   0
                l(3) =   1
                l(4) =   1
     Q(r) pseudized with 0 coefficients 


     Mode symmetry, C_2v (mm2)  point group:


     Atomic displacements:
     There are    6 irreducible representations

     Representation     1      1 modes -  To be done

     Representation     2      1 modes -  To be done

     Representation     3      1 modes -  To be done

     Representation     4      1 modes -  To be done

     Representation     5      1 modes -  To be done

     Representation     6      1 modes -  To be done



     Alpha used in Ewald sum =   2.8000
     PHONON       :   6m49.92s CPU   7m 5.38s WALL



     Representation #   1 mode #   1

     Self-consistent Calculation

      iter #   1 total cpu time :   426.8 secs   av.it.:   5.5
      thresh= 1.000E-02 alpha_mix =  0.700 |ddv_scf|^2 =  1.145E-05

      iter #   2 total cpu time :   428.5 secs   av.it.:   8.9
      thresh= 3.384E-04 alpha_mix =  0.700 |ddv_scf|^2 =  4.459E-05

      iter #   3 total cpu time :   430.0 secs   av.it.:   7.8
      thresh= 6.677E-04 alpha_mix =  0.700 |ddv_scf|^2 =  8.868E-09

      iter #   4 total cpu time :   431.7 secs   av.it.:   8.7
      thresh= 9.417E-06 alpha_mix =  0.700 |ddv_scf|^2 =  6.446E-10

      iter #   5 total cpu time :   433.3 secs   av.it.:   8.3
      thresh= 2.539E-06 alpha_mix =  0.700 |ddv_scf|^2 =  2.125E-11

      iter #   6 total cpu time :   434.9 secs   av.it.:   8.0
      thresh= 4.610E-07 alpha_mix =  0.700 |ddv_scf|^2 =  4.152E-14

      iter #   7 total cpu time :   436.5 secs   av.it.:   8.7
      thresh= 2.038E-08 alpha_mix =  0.700 |ddv_scf|^2 =  8.776E-14

      iter #   8 total cpu time :   438.1 secs   av.it.:   7.8
      thresh= 2.962E-08 alpha_mix =  0.700 |ddv_scf|^2 =  3.799E-16

      iter #   9 total cpu time :   439.7 secs   av.it.:   8.4
      thresh= 1.949E-09 alpha_mix =  0.700 |ddv_scf|^2 =  6.411E-18

      iter #  10 total cpu time :   441.3 secs   av.it.:   8.3
      thresh= 2.532E-10 alpha_mix =  0.700 |ddv_scf|^2 =  1.415E-19

      iter #  11 total cpu time :   442.9 secs   av.it.:   8.2
      thresh= 3.762E-11 alpha_mix =  0.700 |ddv_scf|^2 =  3.538E-21

     End of self-consistent calculation

     Convergence has been achieved 


     Representation #   2 mode #   2

     Self-consistent Calculation

      iter #   1 total cpu time :   444.3 secs   av.it.:   5.4
      thresh= 1.000E-02 alpha_mix =  0.700 |ddv_scf|^2 =  1.542E-05

      iter #   2 total cpu time :   446.0 secs   av.it.:   8.8
      thresh= 3.926E-04 alpha_mix =  0.700 |ddv_scf|^2 =  6.124E-05

      iter #   3 total cpu time :   447.5 secs   av.it.:   7.8
      thresh= 7.826E-04 alpha_mix =  0.700 |ddv_scf|^2 =  5.820E-09

      iter #   4 total cpu time :   449.2 secs   av.it.:   8.6
      thresh= 7.629E-06 alpha_mix =  0.700 |ddv_scf|^2 =  2.679E-10

      iter #   5 total cpu time :   450.8 secs   av.it.:   8.4
      thresh= 1.637E-06 alpha_mix =  0.700 |ddv_scf|^2 =  9.509E-13

      iter #   6 total cpu time :   452.5 secs   av.it.:   8.9
      thresh= 9.751E-08 alpha_mix =  0.700 |ddv_scf|^2 =  5.626E-14

      iter #   7 total cpu time :   454.2 secs   av.it.:   8.7
      thresh= 2.372E-08 alpha_mix =  0.700 |ddv_scf|^2 =  1.058E-13

      iter #   8 total cpu time :   455.7 secs   av.it.:   7.8
      thresh= 3.252E-08 alpha_mix =  0.700 |ddv_scf|^2 =  1.024E-15

      iter #   9 total cpu time :   457.3 secs   av.it.:   8.5
      thresh= 3.200E-09 alpha_mix =  0.700 |ddv_scf|^2 =  1.620E-16

      iter #  10 total cpu time :   458.9 secs   av.it.:   8.3
      thresh= 1.273E-09 alpha_mix =  0.700 |ddv_scf|^2 =  3.981E-18

      iter #  11 total cpu time :   460.5 secs   av.it.:   8.1
      thresh= 1.995E-10 alpha_mix =  0.700 |ddv_scf|^2 =  9.153E-20

      iter #  12 total cpu time :   462.1 secs   av.it.:   8.3
      thresh= 3.025E-11 alpha_mix =  0.700 |ddv_scf|^2 =  6.082E-22

     End of self-consistent calculation

     Convergence has been achieved 


     Representation #   3 mode #   3

     Self-consistent Calculation

      iter #   1 total cpu time :   463.4 secs   av.it.:   4.8
      thresh= 1.000E-02 alpha_mix =  0.700 |ddv_scf|^2 =  1.177E-07

      iter #   2 total cpu time :   465.0 secs   av.it.:   8.3
      thresh= 3.431E-05 alpha_mix =  0.700 |ddv_scf|^2 =  8.898E-09

      iter #   3 total cpu time :   466.5 secs   av.it.:   7.4
      thresh= 9.433E-06 alpha_mix =  0.700 |ddv_scf|^2 =  5.492E-11

      iter #   4 total cpu time :   468.1 secs   av.it.:   8.0
      thresh= 7.411E-07 alpha_mix =  0.700 |ddv_scf|^2 =  7.438E-14

      iter #   5 total cpu time :   469.6 secs   av.it.:   7.8
      thresh= 2.727E-08 alpha_mix =  0.700 |ddv_scf|^2 =  1.549E-16

      iter #   6 total cpu time :   471.2 secs   av.it.:   8.1
      thresh= 1.245E-09 alpha_mix =  0.700 |ddv_scf|^2 =  3.071E-18

      iter #   7 total cpu time :   472.9 secs   av.it.:   8.4
      thresh= 1.752E-10 alpha_mix =  0.700 |ddv_scf|^2 =  5.787E-21

     End of self-consistent calculation

     Convergence has been achieved 


     Representation #   4 mode #   4

     Self-consistent Calculation

      iter #   1 total cpu time :   474.2 secs   av.it.:   5.0
      thresh= 1.000E-02 alpha_mix =  0.700 |ddv_scf|^2 =  3.122E-07

      iter #   2 total cpu time :   476.0 secs   av.it.:   9.3
      thresh= 5.587E-05 alpha_mix =  0.700 |ddv_scf|^2 =  9.885E-08

      iter #   3 total cpu time :   477.7 secs   av.it.:   9.1
      thresh= 3.144E-05 alpha_mix =  0.700 |ddv_scf|^2 =  6.516E-09

      iter #   4 total cpu time :   479.4 secs   av.it.:   8.9
      thresh= 8.072E-06 alpha_mix =  0.700 |ddv_scf|^2 =  9.897E-11

      iter #   5 total cpu time :   481.1 secs   av.it.:   8.7
      thresh= 9.949E-07 alpha_mix =  0.700 |ddv_scf|^2 =  5.678E-14

      iter #   6 total cpu time :   482.9 secs   av.it.:   9.3
      thresh= 2.383E-08 alpha_mix =  0.700 |ddv_scf|^2 =  1.269E-15

      iter #   7 total cpu time :   484.5 secs   av.it.:   8.4
      thresh= 3.562E-09 alpha_mix =  0.700 |ddv_scf|^2 =  1.107E-17

      iter #   8 total cpu time :   486.3 secs   av.it.:   9.1
      thresh= 3.327E-10 alpha_mix =  0.700 |ddv_scf|^2 =  1.837E-19

      iter #   9 total cpu time :   488.0 secs   av.it.:   9.3
      thresh= 4.286E-11 alpha_mix =  0.700 |ddv_scf|^2 =  8.210E-20

      iter #  10 total cpu time :   489.8 secs   av.it.:   9.1
      thresh= 2.865E-11 alpha_mix =  0.700 |ddv_scf|^2 =  5.605E-21

     End of self-consistent calculation

     Convergence has been achieved 


     Representation #   5 mode #   5

     Self-consistent Calculation

      iter #   1 total cpu time :   491.2 secs   av.it.:   5.0
      thresh= 1.000E-02 alpha_mix =  0.700 |ddv_scf|^2 =  1.785E-07

      iter #   2 total cpu time :   492.9 secs   av.it.:   9.3
      thresh= 4.225E-05 alpha_mix =  0.700 |ddv_scf|^2 =  4.549E-08

      iter #   3 total cpu time :   494.7 secs   av.it.:   9.1
      thresh= 2.133E-05 alpha_mix =  0.700 |ddv_scf|^2 =  5.708E-09

      iter #   4 total cpu time :   496.4 secs   av.it.:   8.9
      thresh= 7.555E-06 alpha_mix =  0.700 |ddv_scf|^2 =  7.238E-11

      iter #   5 total cpu time :   498.1 secs   av.it.:   8.8
      thresh= 8.507E-07 alpha_mix =  0.700 |ddv_scf|^2 =  4.241E-14

      iter #   6 total cpu time :   499.8 secs   av.it.:   9.2
      thresh= 2.059E-08 alpha_mix =  0.700 |ddv_scf|^2 =  1.099E-15

      iter #   7 total cpu time :   501.4 secs   av.it.:   8.6
      thresh= 3.316E-09 alpha_mix =  0.700 |ddv_scf|^2 =  7.496E-18

      iter #   8 total cpu time :   503.2 secs   av.it.:   9.1
      thresh= 2.738E-10 alpha_mix =  0.700 |ddv_scf|^2 =  1.132E-19

      iter #   9 total cpu time :   504.9 secs   av.it.:   9.3
      thresh= 3.364E-11 alpha_mix =  0.700 |ddv_scf|^2 =  4.280E-20

      iter #  10 total cpu time :   506.7 secs   av.it.:   9.1
      thresh= 2.069E-11 alpha_mix =  0.700 |ddv_scf|^2 =  5.755E-21

     End of self-consistent calculation

     Convergence has been achieved 


     Representation #   6 mode #   6

     Self-consistent Calculation

      iter #   1 total cpu time :   508.1 secs   av.it.:   5.7
      thresh= 1.000E-02 alpha_mix =  0.700 |ddv_scf|^2 =  2.579E-06

      iter #   2 total cpu time :   509.8 secs   av.it.:   8.9
      thresh= 1.606E-04 alpha_mix =  0.700 |ddv_scf|^2 =  4.049E-07

      iter #   3 total cpu time :   511.5 secs   av.it.:   8.5
      thresh= 6.363E-05 alpha_mix =  0.700 |ddv_scf|^2 =  3.372E-09

      iter #   4 total cpu time :   512.9 secs   av.it.:   7.0
      thresh= 5.807E-06 alpha_mix =  0.700 |ddv_scf|^2 =  8.987E-13

      iter #   5 total cpu time :   514.6 secs   av.it.:   8.3
      thresh= 9.480E-08 alpha_mix =  0.700 |ddv_scf|^2 =  3.538E-14

      iter #   6 total cpu time :   516.2 secs   av.it.:   8.4
      thresh= 1.881E-08 alpha_mix =  0.700 |ddv_scf|^2 =  2.779E-16

      iter #   7 total cpu time :   517.9 secs   av.it.:   8.7
      thresh= 1.667E-09 alpha_mix =  0.700 |ddv_scf|^2 =  3.827E-19

      iter #   8 total cpu time :   519.6 secs   av.it.:   8.4
      thresh= 6.186E-11 alpha_mix =  0.700 |ddv_scf|^2 =  3.066E-20

      iter #   9 total cpu time :   521.3 secs   av.it.:   8.5
      thresh= 1.751E-11 alpha_mix =  0.700 |ddv_scf|^2 =  3.439E-22

     End of self-consistent calculation

     Convergence has been achieved 
 
     Number of q in the star =    6
     List of q in the star:
          1   0.142857143   0.247435830   0.000000000
          2  -0.142857143   0.247435830   0.000000000
          3   0.285714286   0.000000000   0.000000000
          4  -0.285714286   0.000000000   0.000000000
          5   0.142857143  -0.247435830   0.000000000
          6  -0.142857143  -0.247435830   0.000000000

     Diagonalizing the dynamical matrix

     q = (    0.142857143   0.247435830   0.000000000 ) 

 **************************************************************************
     freq (    1) =       5.105461 [THz] =     170.299835 [cm-1]
     freq (    2) =      15.564126 [THz] =     519.163363 [cm-1]
     freq (    3) =      22.311556 [THz] =     744.233383 [cm-1]
     freq (    4) =      24.878870 [THz] =     829.869789 [cm-1]
[...]
         1           C   tau(   1) = (   0.0000000   0.5773503   4.0612436  )
         2           C   tau(   2) = (   0.5000000   0.2886751   4.0612436  )

     number of k points=   156  Methfessel-Paxton smearing, width (Ry)=  0.0200

     Number of k-points >= 100: set verbosity='high' to print them.

     Dense  grid:    52949 G-vectors     FFT dimensions: (  25,  25, 200)

     Estimated max dynamical RAM per process >       3.21 MB

     Estimated total dynamical RAM >      64.19 MB

     The potential is recalculated from file :
     ./_ph0/2Dgraphene.save/charge-density


     negative rho (up, down):  6.981E-05 0.000E+00
     Starting wfcs are    8 atomic wfcs

     Band Structure Calculation
     Davidson diagonalization with overlap

     ethr =  1.25E-10,  avg # of iterations = 25.2

     total cpu time spent up to now is      177.9 secs

     End of band structure calculation

     Number of k-points >= 100: set verbosity='high' to print the bands.

     the Fermi energy is    -2.3445 ev

     Writing output data file ./_ph0/2Dgraphene.save/

                                                                                

     bravais-lattice index     =            4
     lattice parameter (alat)  =       4.6531  a.u.
     unit-cell volume          =     708.6620 (a.u.)^3
     number of atoms/cell      =            2
     number of atomic types    =            1
     kinetic-energy cut-off    =      90.0000  Ry
     charge density cut-off    =     270.0000  Ry
     convergence threshold     =      1.0E-20
     beta                      =       0.7000
     number of iterations used =            4
     Exchange-correlation= PBE
                           (   1   4   3   4   0   0   0)


     celldm(1)=    4.65307  celldm(2)=    0.00000  celldm(3)=    8.12249
     celldm(4)=    0.00000  celldm(5)=    0.00000  celldm(6)=    0.00000

     crystal axes: (cart. coord. in units of alat)
               a(1) = (  1.0000  0.0000  0.0000 )  
               a(2) = ( -0.5000  0.8660  0.0000 )  
               a(3) = (  0.0000  0.0000  8.1225 )  

     reciprocal axes: (cart. coord. in units 2 pi/alat)
               b(1) = (  1.0000  0.5774  0.0000 )  
               b(2) = (  0.0000  1.1547  0.0000 )  
               b(3) = (  0.0000  0.0000  0.1231 )  


     Atoms inside the unit cell: 

     Cartesian axes

     site n.  atom      mass           positions (alat units)
        1     C   12.0107   tau(    1) = (    0.00000    0.57735    4.06124  )
        2     C   12.0107   tau(    2) = (    0.50000    0.28868    4.06124  )

     Computing dynamical matrix for 
                    q = (   0.2857143   0.4948717   0.0000000 )
 
      4 Sym.Ops. (no q -> -q+G )


     G cutoff =  148.0757  (   2654 G-vectors)     FFT grid: ( 25, 25,200)

     number of k points=   156  Methfessel-Paxton smearing, width (Ry)=  0.0200

     PseudoPot. # 1 for C  read from file:
     ../Pseudo/C.pbe-rrkjus.UPF
     MD5 check sum: 00fb224312de0c5b6853bd333518df6f
     Pseudo is Ultrasoft, Zval =  4.0
     Generated by new atomic code, or converted to UPF format
     Using radial grid of  627 points,  4 beta functions with: 
                l(1) =   0
                l(2) =   0
                l(3) =   1
                l(4) =   1
     Q(r) pseudized with 0 coefficients 


     Mode symmetry, C_2v (mm2)  point group:


     Atomic displacements:
     There are    6 irreducible representations

     Representation     1      1 modes -  To be done

     Representation     2      1 modes -  To be done

     Representation     3      1 modes -  To be done

     Representation     4      1 modes -  To be done

     Representation     5      1 modes -  To be done

     Representation     6      1 modes -  To be done



     Alpha used in Ewald sum =   2.8000
     PHONON       :  14m56.13s CPU  15m30.42s WALL



     Representation #   1 mode #   1

     Self-consistent Calculation

      iter #   1 total cpu time :   931.9 secs   av.it.:   5.6
      thresh= 1.000E-02 alpha_mix =  0.700 |ddv_scf|^2 =  1.705E-06

      iter #   2 total cpu time :   933.8 secs   av.it.:   9.6
      thresh= 1.306E-04 alpha_mix =  0.700 |ddv_scf|^2 =  1.043E-06

      iter #   3 total cpu time :   935.5 secs   av.it.:   8.9
      thresh= 1.021E-04 alpha_mix =  0.700 |ddv_scf|^2 =  6.244E-08

      iter #   4 total cpu time :   937.3 secs   av.it.:   8.9
      thresh= 2.499E-05 alpha_mix =  0.700 |ddv_scf|^2 =  5.267E-10

      iter #   5 total cpu time :   939.0 secs   av.it.:   8.4
      thresh= 2.295E-06 alpha_mix =  0.700 |ddv_scf|^2 =  1.120E-12

      iter #   6 total cpu time :   940.8 secs   av.it.:   9.3
      thresh= 1.058E-07 alpha_mix =  0.700 |ddv_scf|^2 =  7.906E-15

      iter #   7 total cpu time :   942.6 secs   av.it.:   9.0
      thresh= 8.891E-09 alpha_mix =  0.700 |ddv_scf|^2 =  4.203E-16

      iter #   8 total cpu time :   944.3 secs   av.it.:   9.0
      thresh= 2.050E-09 alpha_mix =  0.700 |ddv_scf|^2 =  1.178E-16

      iter #   9 total cpu time :   946.0 secs   av.it.:   8.7
      thresh= 1.085E-09 alpha_mix =  0.700 |ddv_scf|^2 =  8.942E-19

      iter #  10 total cpu time :   947.9 secs   av.it.:   9.4
      thresh= 9.456E-11 alpha_mix =  0.700 |ddv_scf|^2 =  1.939E-19

      iter #  11 total cpu time :   949.7 secs   av.it.:   9.1
      thresh= 4.403E-11 alpha_mix =  0.700 |ddv_scf|^2 =  1.746E-20

      iter #  12 total cpu time :   951.4 secs   av.it.:   8.9
      thresh= 1.321E-11 alpha_mix =  0.700 |ddv_scf|^2 =  7.275E-22

     End of self-consistent calculation

     Convergence has been achieved 


     Representation #   2 mode #   2

     Self-consistent Calculation

      iter #   1 total cpu time :   952.9 secs   av.it.:   5.5
      thresh= 1.000E-02 alpha_mix =  0.700 |ddv_scf|^2 =  2.272E-06

      iter #   2 total cpu time :   954.7 secs   av.it.:   9.5
      thresh= 1.507E-04 alpha_mix =  0.700 |ddv_scf|^2 =  2.652E-06

      iter #   3 total cpu time :   956.5 secs   av.it.:   8.8
      thresh= 1.628E-04 alpha_mix =  0.700 |ddv_scf|^2 =  1.559E-08

      iter #   4 total cpu time :   958.3 secs   av.it.:   9.1
      thresh= 1.249E-05 alpha_mix =  0.700 |ddv_scf|^2 =  4.659E-10

      iter #   5 total cpu time :   960.0 secs   av.it.:   8.8
      thresh= 2.158E-06 alpha_mix =  0.700 |ddv_scf|^2 =  6.774E-12

      iter #   6 total cpu time :   961.7 secs   av.it.:   8.9
      thresh= 2.603E-07 alpha_mix =  0.700 |ddv_scf|^2 =  7.901E-15

      iter #   7 total cpu time :   963.5 secs   av.it.:   9.1
      thresh= 8.889E-09 alpha_mix =  0.700 |ddv_scf|^2 =  6.857E-16

      iter #   8 total cpu time :   965.3 secs   av.it.:   9.0
      thresh= 2.619E-09 alpha_mix =  0.700 |ddv_scf|^2 =  2.062E-16

      iter #   9 total cpu time :   967.1 secs   av.it.:   8.8
      thresh= 1.436E-09 alpha_mix =  0.700 |ddv_scf|^2 =  3.623E-18

      iter #  10 total cpu time :   968.9 secs   av.it.:   9.2
      thresh= 1.903E-10 alpha_mix =  0.700 |ddv_scf|^2 =  1.021E-19

      iter #  11 total cpu time :   970.7 secs   av.it.:   9.4
      thresh= 3.196E-11 alpha_mix =  0.700 |ddv_scf|^2 =  7.928E-21

     End of self-consistent calculation

     Convergence has been achieved 


     Representation #   3 mode #   3

     Self-consistent Calculation

      iter #   1 total cpu time :   972.1 secs   av.it.:   5.1
      thresh= 1.000E-02 alpha_mix =  0.700 |ddv_scf|^2 =  1.768E-07

      iter #   2 total cpu time :   973.9 secs   av.it.:   8.9
      thresh= 4.204E-05 alpha_mix =  0.700 |ddv_scf|^2 =  8.211E-09

      iter #   3 total cpu time :   975.4 secs   av.it.:   7.3
      thresh= 9.061E-06 alpha_mix =  0.700 |ddv_scf|^2 =  3.958E-10

      iter #   4 total cpu time :   976.9 secs   av.it.:   7.1
      thresh= 1.989E-06 alpha_mix =  0.700 |ddv_scf|^2 =  9.548E-14

      iter #   5 total cpu time :   978.5 secs   av.it.:   8.0
      thresh= 3.090E-08 alpha_mix =  0.700 |ddv_scf|^2 =  3.055E-16

      iter #   6 total cpu time :   980.2 secs   av.it.:   8.1
      thresh= 1.748E-09 alpha_mix =  0.700 |ddv_scf|^2 =  2.623E-18

      iter #   7 total cpu time :   981.9 secs   av.it.:   8.8
      thresh= 1.620E-10 alpha_mix =  0.700 |ddv_scf|^2 =  1.650E-20

      iter #   8 total cpu time :   983.7 secs   av.it.:   8.8
      thresh= 1.285E-11 alpha_mix =  0.700 |ddv_scf|^2 =  1.101E-21

     End of self-consistent calculation

     Convergence has been achieved 


     Representation #   4 mode #   4

     Self-consistent Calculation

      iter #   1 total cpu time :   985.1 secs   av.it.:   5.1
      thresh= 1.000E-02 alpha_mix =  0.700 |ddv_scf|^2 =  8.411E-07

      iter #   2 total cpu time :   986.9 secs   av.it.:   9.4
      thresh= 9.171E-05 alpha_mix =  0.700 |ddv_scf|^2 =  7.252E-07

      iter #   3 total cpu time :   988.7 secs   av.it.:   8.8
      thresh= 8.516E-05 alpha_mix =  0.700 |ddv_scf|^2 =  4.690E-09

      iter #   4 total cpu time :   990.5 secs   av.it.:   8.8
      thresh= 6.848E-06 alpha_mix =  0.700 |ddv_scf|^2 =  8.348E-11

      iter #   5 total cpu time :   992.2 secs   av.it.:   8.7
      thresh= 9.137E-07 alpha_mix =  0.700 |ddv_scf|^2 =  2.867E-14

      iter #   6 total cpu time :   993.9 secs   av.it.:   9.0
      thresh= 1.693E-08 alpha_mix =  0.700 |ddv_scf|^2 =  5.810E-16

      iter #   7 total cpu time :   995.7 secs   av.it.:   8.6
      thresh= 2.410E-09 alpha_mix =  0.700 |ddv_scf|^2 =  6.844E-18

      iter #   8 total cpu time :   997.5 secs   av.it.:   9.6
      thresh= 2.616E-10 alpha_mix =  0.700 |ddv_scf|^2 =  4.022E-19

      iter #   9 total cpu time :   999.3 secs   av.it.:   9.3
      thresh= 6.342E-11 alpha_mix =  0.700 |ddv_scf|^2 =  2.095E-19

      iter #  10 total cpu time :  1001.1 secs   av.it.:   8.8
      thresh= 4.577E-11 alpha_mix =  0.700 |ddv_scf|^2 =  2.055E-21

     End of self-consistent calculation

     Convergence has been achieved 


     Representation #   5 mode #   5

     Self-consistent Calculation

      iter #   1 total cpu time :  1002.5 secs   av.it.:   5.0
      thresh= 1.000E-02 alpha_mix =  0.700 |ddv_scf|^2 =  5.466E-07

      iter #   2 total cpu time :  1004.3 secs   av.it.:   9.4
      thresh= 7.393E-05 alpha_mix =  0.700 |ddv_scf|^2 =  4.504E-07

      iter #   3 total cpu time :  1006.0 secs   av.it.:   8.8
      thresh= 6.711E-05 alpha_mix =  0.700 |ddv_scf|^2 =  4.546E-09

      iter #   4 total cpu time :  1007.8 secs   av.it.:   8.8
      thresh= 6.742E-06 alpha_mix =  0.700 |ddv_scf|^2 =  7.040E-11

      iter #   5 total cpu time :  1009.5 secs   av.it.:   8.7
      thresh= 8.390E-07 alpha_mix =  0.700 |ddv_scf|^2 =  2.682E-14

      iter #   6 total cpu time :  1011.2 secs   av.it.:   8.8
      thresh= 1.638E-08 alpha_mix =  0.700 |ddv_scf|^2 =  3.786E-16

      iter #   7 total cpu time :  1012.9 secs   av.it.:   8.8
      thresh= 1.946E-09 alpha_mix =  0.700 |ddv_scf|^2 =  5.667E-18

      iter #   8 total cpu time :  1014.8 secs   av.it.:   9.4
      thresh= 2.381E-10 alpha_mix =  0.700 |ddv_scf|^2 =  7.269E-20

      iter #   9 total cpu time :  1016.6 secs   av.it.:   9.1
      thresh= 2.696E-11 alpha_mix =  0.700 |ddv_scf|^2 =  2.208E-20

      iter #  10 total cpu time :  1018.4 secs   av.it.:   9.0
      thresh= 1.486E-11 alpha_mix =  0.700 |ddv_scf|^2 =  2.532E-21

     End of self-consistent calculation

     Convergence has been achieved 


     Representation #   6 mode #   6

     Self-consistent Calculation

      iter #   1 total cpu time :  1019.9 secs   av.it.:   5.2
      thresh= 1.000E-02 alpha_mix =  0.700 |ddv_scf|^2 =  3.521E-07

      iter #   2 total cpu time :  1021.6 secs   av.it.:   9.0
      thresh= 5.934E-05 alpha_mix =  0.700 |ddv_scf|^2 =  1.420E-08

      iter #   3 total cpu time :  1023.4 secs   av.it.:   8.4
      thresh= 1.192E-05 alpha_mix =  0.700 |ddv_scf|^2 =  1.092E-09

      iter #   4 total cpu time :  1025.0 secs   av.it.:   7.7
      thresh= 3.304E-06 alpha_mix =  0.700 |ddv_scf|^2 =  1.278E-13

      iter #   5 total cpu time :  1026.7 secs   av.it.:   8.2
      thresh= 3.575E-08 alpha_mix =  0.700 |ddv_scf|^2 =  3.575E-15

      iter #   6 total cpu time :  1028.4 secs   av.it.:   8.2
      thresh= 5.979E-09 alpha_mix =  0.700 |ddv_scf|^2 =  4.548E-18

      iter #   7 total cpu time :  1030.2 secs   av.it.:   9.0
      thresh= 2.133E-10 alpha_mix =  0.700 |ddv_scf|^2 =  1.197E-19

      iter #   8 total cpu time :  1031.8 secs   av.it.:   8.1
      thresh= 3.460E-11 alpha_mix =  0.700 |ddv_scf|^2 =  6.045E-21

     End of self-consistent calculation

     Convergence has been achieved 
 
     Number of q in the star =    6
     List of q in the star:
          1   0.285714286   0.494871659   0.000000000
          2  -0.285714286   0.494871659   0.000000000
          3   0.571428571   0.000000000   0.000000000
          4  -0.571428571   0.000000000   0.000000000
          5   0.285714286  -0.494871659   0.000000000
          6  -0.285714286  -0.494871659   0.000000000

     Diagonalizing the dynamical matrix

     q = (    0.285714286   0.494871659   0.000000000 ) 

 **************************************************************************
     freq (    1) =      13.852086 [THz] =     462.055852 [cm-1]
     freq (    2) =      18.553042 [THz] =     618.862880 [cm-1]
     freq (    3) =      27.953686 [THz] =     932.434608 [cm-1]
     freq (    4) =      34.388368 [THz] =    1147.072491 [cm-1]
     freq (    5) =      39.569093 [THz] =    1319.882883 [cm-1]
     freq (    6) =      39.823065 [THz] =    1328.354459 [cm-1]
 **************************************************************************

     Mode symmetry, C_2v (mm2)  point group:

     freq (   1-   1) =        462.1  [cm-1]   --> B_2  D_4  S_4      
     freq (   2-   2) =        618.9  [cm-1]   --> A_2  D_2  S_2      
     freq (   3-   3) =        932.4  [cm-1]   --> B_1  D_3  S_3      
     freq (   4-   4) =       1147.1  [cm-1]   --> A_1  D_1  S_1      
     freq (   5-   5) =       1319.9  [cm-1]   --> B_1  D_3  S_3      
     freq (   6-   6) =       1328.4  [cm-1]   --> A_1  D_1  S_1      
 
     init_run     :      0.57s CPU      0.59s WALL (       7 calls)
     electrons    :    173.85s CPU    176.98s WALL (       7 calls)

     Called by init_run:
     wfcinit      :      0.00s CPU      0.00s WALL (       7 calls)
     potinit      :      0.07s CPU      0.08s WALL (       7 calls)
     hinit0       :      0.12s CPU      0.13s WALL (       7 calls)

     Called by electrons:
     c_bands      :    173.83s CPU    176.95s WALL (       7 calls)
     v_of_rho     :      0.05s CPU      0.05s WALL (       8 calls)
     newd         :      0.03s CPU      0.03s WALL (       8 calls)

     Called by c_bands:
     init_us_2    :      5.98s CPU      6.21s WALL (   46314 calls)
     cegterg      :    166.56s CPU    169.41s WALL (    2300 calls)

     Called by *egterg:
     cdiaghg      :     76.00s CPU     76.63s WALL (   32456 calls)
     h_psi        :    602.48s CPU    624.61s WALL (  437861 calls)
     s_psi        :     17.43s CPU     18.13s WALL (  879993 calls)
     g_psi        :      0.63s CPU      0.64s WALL (   31232 calls)

     Called by h_psi:
     h_psi:calbec :     26.93s CPU     27.80s WALL (  437861 calls)
     vloc_psi     :    561.16s CPU    581.90s WALL (  437861 calls)
     add_vuspsi   :      8.92s CPU      9.27s WALL (  437861 calls)

     General routines
     calbec       :     52.53s CPU     54.45s WALL (  946784 calls)
     fft          :      2.48s CPU      2.55s WALL (    6458 calls)
     ffts         :      1.31s CPU      1.38s WALL (    4418 calls)
     fftw         :    643.20s CPU    670.06s WALL ( 3761316 calls)
     davcio       :      5.38s CPU      5.92s WALL (  204146 calls)
 
     Parallel routines
     fft_scatt_xy :     54.66s CPU     56.84s WALL ( 3772192 calls)
     fft_scatt_yz :    229.58s CPU    239.12s WALL ( 3772192 calls)
 
     PHONON       :  16m33.40s CPU  17m11.88s WALL

     INITIALIZATION: 
     phq_setup    :      0.09s CPU      0.10s WALL (       8 calls)
     phq_init     :      6.52s CPU      6.76s WALL (       8 calls)
 
     phq_init     :      6.52s CPU      6.76s WALL (       8 calls)
     init_vloc    :      0.06s CPU      0.06s WALL (       8 calls)
     init_us_1    :      0.11s CPU      0.12s WALL (       8 calls)
     newd         :      0.03s CPU      0.03s WALL (       8 calls)
     dvanqq       :      0.28s CPU      0.28s WALL (       8 calls)
     drho         :      5.30s CPU      5.48s WALL (       8 calls)
 
     DYNAMICAL MATRIX:
     dynmat0      :      0.50s CPU      0.53s WALL (       8 calls)
     phqscf       :    811.76s CPU    846.59s WALL (       8 calls)
     dynmatrix    :      0.01s CPU      0.02s WALL (       8 calls)
 
     phqscf       :    811.76s CPU    846.59s WALL (       8 calls)
     solve_linter :    809.56s CPU    844.20s WALL (      46 calls)
     drhodv       :      2.16s CPU      2.27s WALL (      46 calls)
 
     dynmat0      :      0.50s CPU      0.53s WALL (       8 calls)
     dynmat_us    :      0.49s CPU      0.51s WALL (       8 calls)
     d2ionq       :      0.01s CPU      0.01s WALL (       8 calls)
 
     dynmat_us    :      0.49s CPU      0.51s WALL (       8 calls)
     addusdynmat  :      0.00s CPU      0.00s WALL (       8 calls)
 
     phqscf       :    811.76s CPU    846.59s WALL (       8 calls)
     solve_linter :    809.56s CPU    844.20s WALL (      46 calls)
 
     solve_linter :    809.56s CPU    844.20s WALL (      46 calls)
     dvqpsi_us    :     13.45s CPU     13.96s WALL (    3786 calls)
     ortho        :      7.67s CPU      7.98s WALL (   39027 calls)
     cgsolve      :    635.75s CPU    660.00s WALL (   39027 calls)
     incdrhoscf   :     61.99s CPU     65.79s WALL (   39027 calls)
     addusddens   :      2.14s CPU      2.16s WALL (     508 calls)
     vpsifft      :     52.46s CPU     56.16s WALL (   35241 calls)
     dv_of_drho   :      2.22s CPU      2.25s WALL (     476 calls)
     mix_pot      :      0.27s CPU      0.45s WALL (     462 calls)
     ef_shift     :      0.03s CPU      0.04s WALL (      35 calls)
     localdos     :      0.19s CPU      0.19s WALL (       4 calls)
     psymdvscf    :     16.79s CPU     17.24s WALL (     462 calls)
     newdq        :      1.95s CPU      2.04s WALL (     462 calls)
     adddvscf     :      1.70s CPU      1.77s WALL (   35241 calls)
     drhodvus     :      0.01s CPU      0.02s WALL (      46 calls)
 
     dvqpsi_us    :     13.45s CPU     13.96s WALL (    3786 calls)
     dvqpsi_us_on :      0.86s CPU      0.88s WALL (    3786 calls)
 
     cgsolve      :    635.75s CPU    660.00s WALL (   39027 calls)
     ch_psi       :    605.57s CPU    628.51s WALL (  403105 calls)
 
     ch_psi       :    605.57s CPU    628.51s WALL (  403105 calls)
     h_psi        :    602.48s CPU    624.61s WALL (  437861 calls)
     last         :     51.65s CPU     53.68s WALL (  403105 calls)
 
     h_psi        :    602.48s CPU    624.61s WALL (  437861 calls)
     add_vuspsi   :      8.92s CPU      9.27s WALL (  437861 calls)
 
     incdrhoscf   :     61.99s CPU     65.79s WALL (   39027 calls)
     addusdbec    :      3.93s CPU      4.04s WALL (   42813 calls)
 
     drhodvus     :      0.01s CPU      0.02s WALL (      46 calls)
 
      General routines
     calbec       :     52.53s CPU     54.45s WALL (  946784 calls)
     fft          :      2.48s CPU      2.55s WALL (    6458 calls)
     ffts         :      1.31s CPU      1.38s WALL (    4418 calls)
     fftw         :    643.20s CPU    670.06s WALL ( 3761316 calls)
     davcio       :      5.38s CPU      5.92s WALL (  204146 calls)
     write_rec    :      0.17s CPU      0.57s WALL (     508 calls)
 
 
     PHONON       :  16m33.40s CPU  17m11.89s WALL

 
   This run was terminated on:  10:47: 7  23Feb2022            

=------------------------------------------------------------------------------=
   JOB DONE.
=------------------------------------------------------------------------------=
