
     Program PWSCF v.6.7MaX starts on  8Mar2022 at 10: 5: 8 

     This program is part of the open-source Quantum ESPRESSO suite
     for quantum simulation of materials; please cite
         "P. Giannozzi et al., J. Phys.:Condens. Matter 21 395502 (2009);
         "P. Giannozzi et al., J. Phys.:Condens. Matter 29 465901 (2017);
          URL http://www.quantum-espresso.org", 
     in publications or presentations arising from this work. More details at
     http://www.quantum-espresso.org/quote

     Parallel version (MPI), running on    30 processors

     MPI processes distributed on     1 nodes
     R & G space division:  proc/nbgrp/npool/nimage =      30
     Waiting for input...
     Reading input from standard input

     Current dimensions of program PWSCF are:
     Max number of different atomic species (ntypx) = 10
     Max number of k-points (npk) =  40000
     Max angular momentum in pseudopotentials (lmaxx) =  3
     file C.pbe-rrkjus.UPF: wavefunction(s)  2S 2P renormalized
     file H.pbe-rrkjus.UPF: wavefunction(s)  1S renormalized
     Message from routine set_cutoff:
     ecutrho < 4*ecutwfc, are you sure?

     Subspace diagonalization in iterative solution of the eigenvalue problem:
     one sub-group per band group will be used
     scalapack distributed-memory algorithm (size of sub-group:  5*  5 procs)

 
     Parallelization info
     --------------------
     sticks:   dense  smooth     PW     G-vecs:    dense   smooth      PW
     Min         199     199     72                19657    19657    4270
     Max         200     200     73                19661    19661    4278
     Sum        5971    5971   2161               589803   589803  128205
 


     bravais-lattice index     =            8
     lattice parameter (alat)  =       8.0551  a.u.
     unit-cell volume          =    7875.5856 (a.u.)^3
     number of atoms/cell      =           16
     number of atomic types    =            2
     number of electrons       =        52.00
     number of Kohn-Sham states=           26
     kinetic-energy cutoff     =      90.0000  Ry
     charge density cutoff     =     270.0000  Ry
     scf convergence threshold =      1.0E-08
     mixing beta               =       0.3000
     number of iterations used =            8  local-TF  mixing
     energy convergence thresh.=      1.0E-04
     force convergence thresh. =      1.0E-03
     press convergence thresh. =      5.0E-01
     Exchange-correlation=  SLA  PW   PBE  PBE
                           (   1   4   3   4   0   0   0)
     nstep                     =           50


     celldm(1)=   8.055109  celldm(2)=   4.282032  celldm(3)=   3.518996
     celldm(4)=   0.000000  celldm(5)=   0.000000  celldm(6)=   0.000000

     crystal axes: (cart. coord. in units of alat)
               a(1) = (   1.000000   0.000000   0.000000 )  
               a(2) = (   0.000000   4.282032   0.000000 )  
               a(3) = (   0.000000   0.000000   3.518996 )  

     reciprocal axes: (cart. coord. in units 2 pi/alat)
               b(1) = (  1.000000  0.000000  0.000000 )  
               b(2) = (  0.000000  0.233534  0.000000 )  
               b(3) = (  0.000000  0.000000  0.284172 )  


     PseudoPot. # 1 for C  read from file:
     ../Pseudo/C.pbe-rrkjus.UPF
     MD5 check sum: 00fb224312de0c5b6853bd333518df6f
     Pseudo is Ultrasoft, Zval =  4.0
     Generated by new atomic code, or converted to UPF format
     Using radial grid of  627 points,  4 beta functions with: 
                l(1) =   0
                l(2) =   0
                l(3) =   1
                l(4) =   1
     Q(r) pseudized with 0 coefficients 


     PseudoPot. # 2 for H  read from file:
     ../Pseudo/H.pbe-rrkjus.UPF
     MD5 check sum: 7cc9d459525c9a0585f487a71c3c9563
     Pseudo is Ultrasoft, Zval =  1.0
     Generated by new atomic code, or converted to UPF format
     Using radial grid of 1061 points,  2 beta functions with: 
                l(1) =   0
                l(2) =   0
     Q(r) pseudized with 0 coefficients 


     atomic species   valence    mass     pseudopotential
        C              4.00    12.01070     C ( 1.00)
        H              1.00     1.00794     H ( 1.00)

      8 Sym. Ops., with inversion, found ( 4 have fractional translation)



   Cartesian axes

     site n.     atom                  positions (alat units)
         1           C   tau(   1) = (   0.6666667   1.3255010   1.7594978  )
         2           C   tau(   2) = (   0.8333333   1.6517070   1.7594978  )
         3           C   tau(   3) = (   0.3333333   1.3255010   1.7594978  )
         4           C   tau(   4) = (   0.6666667   1.9779130   1.7594978  )
         5           C   tau(   5) = (   0.8333333   2.3041190   1.7594978  )
         6           C   tau(   6) = (   0.1666667   1.6517070   1.7594978  )
         7           C   tau(   7) = (   0.3333333   1.9779130   1.7594978  )
         8           C   tau(   8) = (   0.6666667   2.6303250   1.7594978  )
         9           C   tau(   9) = (   0.8333333   2.9565310   1.7594978  )
        10           C   tau(  10) = (   0.1666667   2.3041190   1.7594978  )
        11           C   tau(  11) = (   0.3333333   2.6303250   1.7594978  )
        12           C   tau(  12) = (   0.1666667   2.9565310   1.7594978  )
        13           H   tau(  13) = (   0.7945235   1.0752550   1.7594978  )
        14           H   tau(  14) = (   0.2054765   1.0752550   1.7594978  )
        15           H   tau(  15) = (   0.7054765   3.2067770   1.7594978  )
        16           H   tau(  16) = (   0.2945235   3.2067770   1.7594978  )

     number of k points=    21
                       cart. coord. in units 2pi/alat
        k(    1) = (   0.0000000   0.0000000   0.0000000), wk =   0.0500000
        k(    2) = (   0.0250000   0.0000000   0.0000000), wk =   0.1000000
        k(    3) = (   0.0500000   0.0000000   0.0000000), wk =   0.1000000
        k(    4) = (   0.0750000   0.0000000   0.0000000), wk =   0.1000000
        k(    5) = (   0.1000000   0.0000000   0.0000000), wk =   0.1000000
        k(    6) = (   0.1250000   0.0000000   0.0000000), wk =   0.1000000
        k(    7) = (   0.1500000   0.0000000   0.0000000), wk =   0.1000000
        k(    8) = (   0.1750000   0.0000000   0.0000000), wk =   0.1000000
        k(    9) = (   0.2000000   0.0000000   0.0000000), wk =   0.1000000
        k(   10) = (   0.2250000   0.0000000   0.0000000), wk =   0.1000000
        k(   11) = (   0.2500000   0.0000000   0.0000000), wk =   0.1000000
        k(   12) = (   0.2750000   0.0000000   0.0000000), wk =   0.1000000
        k(   13) = (   0.3000000   0.0000000   0.0000000), wk =   0.1000000
        k(   14) = (   0.3250000   0.0000000   0.0000000), wk =   0.1000000
        k(   15) = (   0.3500000   0.0000000   0.0000000), wk =   0.1000000
        k(   16) = (   0.3750000   0.0000000   0.0000000), wk =   0.1000000
        k(   17) = (   0.4000000   0.0000000   0.0000000), wk =   0.1000000
        k(   18) = (   0.4250000   0.0000000   0.0000000), wk =   0.1000000
        k(   19) = (   0.4500000   0.0000000   0.0000000), wk =   0.1000000
        k(   20) = (   0.4750000   0.0000000   0.0000000), wk =   0.1000000
        k(   21) = (  -0.5000000   0.0000000   0.0000000), wk =   0.0500000

     Dense  grid:   589803 G-vectors     FFT dimensions: (  48, 192, 150)

     Estimated max dynamical RAM per process >      75.75 MB

     Estimated total dynamical RAM >       2.22 GB

     Initial potential from superposition of free atoms

     starting charge   51.61455, renormalised to   52.00000

     negative rho (up, down):  6.906E-04 0.000E+00
     Starting wfcs are   52 randomized atomic wfcs

     total cpu time spent up to now is        5.5 secs

     Self-consistent Calculation

     iteration #  1     ecut=    90.00 Ry     beta= 0.30
     Davidson diagonalization with overlap
     ethr =  1.00E-02,  avg # of iterations =  2.0

     negative rho (up, down):  1.142E-08 0.000E+00

     total cpu time spent up to now is       16.6 secs

     total energy              =    -141.78556039 Ry
     estimated scf accuracy    <       4.33441066 Ry

     iteration #  2     ecut=    90.00 Ry     beta= 0.30
     Davidson diagonalization with overlap
     ethr =  8.34E-03,  avg # of iterations =  1.0

     negative rho (up, down):  4.988E-03 0.000E+00

     total cpu time spent up to now is       22.7 secs

     total energy              =    -140.37640401 Ry
     estimated scf accuracy    <       3.07491833 Ry

     iteration #  3     ecut=    90.00 Ry     beta= 0.30
     Davidson diagonalization with overlap
     ethr =  5.91E-03,  avg # of iterations =  4.0

     total cpu time spent up to now is       31.0 secs

     total energy              =    -141.07955666 Ry
     estimated scf accuracy    <       0.40319336 Ry

     iteration #  4     ecut=    90.00 Ry     beta= 0.30
     Davidson diagonalization with overlap
     ethr =  7.75E-04,  avg # of iterations =  2.7

     total cpu time spent up to now is       38.1 secs

     total energy              =    -141.08048015 Ry
     estimated scf accuracy    <       0.20681822 Ry

     iteration #  5     ecut=    90.00 Ry     beta= 0.30
     Davidson diagonalization with overlap
     ethr =  3.98E-04,  avg # of iterations =  2.1

     negative rho (up, down):  5.701E-03 0.000E+00

     total cpu time spent up to now is       45.0 secs

     total energy              =    -141.03838156 Ry
     estimated scf accuracy    <       0.12481624 Ry

     iteration #  6     ecut=    90.00 Ry     beta= 0.30
     Davidson diagonalization with overlap
     ethr =  2.40E-04,  avg # of iterations =  2.0

     negative rho (up, down):  1.523E-03 0.000E+00

     total cpu time spent up to now is       52.7 secs

     total energy              =    -141.04332962 Ry
     estimated scf accuracy    <       0.05402635 Ry

     iteration #  7     ecut=    90.00 Ry     beta= 0.30
     Davidson diagonalization with overlap
     ethr =  1.04E-04,  avg # of iterations =  1.0

     negative rho (up, down):  4.207E-02 0.000E+00

     total cpu time spent up to now is       60.5 secs

     total energy              =    -141.03038586 Ry
     estimated scf accuracy    <       0.03554431 Ry

     iteration #  8     ecut=    90.00 Ry     beta= 0.30
     Davidson diagonalization with overlap
     ethr =  6.84E-05,  avg # of iterations =  3.9

     negative rho (up, down):  2.770E-02 0.000E+00

     total cpu time spent up to now is       71.6 secs

     total energy              =    -141.02506382 Ry
     estimated scf accuracy    <       0.04929570 Ry

     iteration #  9     ecut=    90.00 Ry     beta= 0.30
     Davidson diagonalization with overlap
     ethr =  6.84E-05,  avg # of iterations =  2.2

     negative rho (up, down):  8.734E-02 0.000E+00

     total cpu time spent up to now is       79.9 secs

     total energy              =    -141.02855707 Ry
     estimated scf accuracy    <       0.00951379 Ry

     iteration # 10     ecut=    90.00 Ry     beta= 0.30
     Davidson diagonalization with overlap
     ethr =  1.83E-05,  avg # of iterations =  4.0

     negative rho (up, down):  5.145E-02 0.000E+00

     total cpu time spent up to now is       89.1 secs

     total energy              =    -141.02863829 Ry
     estimated scf accuracy    <       0.00367756 Ry

     iteration # 11     ecut=    90.00 Ry     beta= 0.30
     Davidson diagonalization with overlap
     ethr =  7.07E-06,  avg # of iterations =  1.9

     negative rho (up, down):  2.867E-02 0.000E+00

     total cpu time spent up to now is       97.2 secs

     total energy              =    -141.02822862 Ry
     estimated scf accuracy    <       0.00162442 Ry

     iteration # 12     ecut=    90.00 Ry     beta= 0.30
     Davidson diagonalization with overlap
     ethr =  3.12E-06,  avg # of iterations =  3.4

     negative rho (up, down):  1.539E-02 0.000E+00

     total cpu time spent up to now is      105.5 secs

     total energy              =    -141.02828289 Ry
     estimated scf accuracy    <       0.00032270 Ry

     iteration # 13     ecut=    90.00 Ry     beta= 0.30
     Davidson diagonalization with overlap
     ethr =  6.21E-07,  avg # of iterations =  2.9

     negative rho (up, down):  8.094E-03 0.000E+00

     total cpu time spent up to now is      114.6 secs

     total energy              =    -141.02823679 Ry
     estimated scf accuracy    <       0.00017430 Ry

     iteration # 14     ecut=    90.00 Ry     beta= 0.30
     Davidson diagonalization with overlap
     ethr =  3.35E-07,  avg # of iterations =  3.0

     negative rho (up, down):  7.393E-03 0.000E+00

     total cpu time spent up to now is      124.3 secs

     total energy              =    -141.02826293 Ry
     estimated scf accuracy    <       0.00004551 Ry

     iteration # 15     ecut=    90.00 Ry     beta= 0.30
     Davidson diagonalization with overlap
     ethr =  8.75E-08,  avg # of iterations =  2.4

     negative rho (up, down):  4.754E-03 0.000E+00

     total cpu time spent up to now is      133.3 secs

     total energy              =    -141.02826311 Ry
     estimated scf accuracy    <       0.00002749 Ry

     iteration # 16     ecut=    90.00 Ry     beta= 0.30
     Davidson diagonalization with overlap
     ethr =  5.29E-08,  avg # of iterations =  2.9

     negative rho (up, down):  1.822E-03 0.000E+00

     total cpu time spent up to now is      142.9 secs

     total energy              =    -141.02824989 Ry
     estimated scf accuracy    <       0.00002235 Ry

     iteration # 17     ecut=    90.00 Ry     beta= 0.30
     Davidson diagonalization with overlap
     ethr =  4.30E-08,  avg # of iterations =  4.2

     negative rho (up, down):  1.607E-03 0.000E+00

     total cpu time spent up to now is      155.2 secs

     total energy              =    -141.02825554 Ry
     estimated scf accuracy    <       0.00001015 Ry

     iteration # 18     ecut=    90.00 Ry     beta= 0.30
     Davidson diagonalization with overlap
     ethr =  1.95E-08,  avg # of iterations =  1.3

     negative rho (up, down):  1.405E-03 0.000E+00

     total cpu time spent up to now is      165.9 secs

     total energy              =    -141.02825230 Ry
     estimated scf accuracy    <       0.00000514 Ry

     iteration # 19     ecut=    90.00 Ry     beta= 0.30
     Davidson diagonalization with overlap
     ethr =  9.89E-09,  avg # of iterations =  3.2

     negative rho (up, down):  7.741E-04 0.000E+00

     total cpu time spent up to now is      177.1 secs

     total energy              =    -141.02824977 Ry
     estimated scf accuracy    <       0.00000076 Ry

     iteration # 20     ecut=    90.00 Ry     beta= 0.30
     Davidson diagonalization with overlap
     ethr =  1.46E-09,  avg # of iterations =  4.1

     negative rho (up, down):  5.941E-04 0.000E+00

     total cpu time spent up to now is      189.4 secs

     total energy              =    -141.02824959 Ry
     estimated scf accuracy    <       0.00000066 Ry

     iteration # 21     ecut=    90.00 Ry     beta= 0.30
     Davidson diagonalization with overlap
     ethr =  1.27E-09,  avg # of iterations =  1.8

     negative rho (up, down):  5.237E-04 0.000E+00

     total cpu time spent up to now is      199.1 secs

     total energy              =    -141.02824960 Ry
     estimated scf accuracy    <       0.00000022 Ry

     iteration # 22     ecut=    90.00 Ry     beta= 0.30
     Davidson diagonalization with overlap
     ethr =  4.23E-10,  avg # of iterations =  3.8

     negative rho (up, down):  5.354E-04 0.000E+00

     total cpu time spent up to now is      210.6 secs

     total energy              =    -141.02824969 Ry
     estimated scf accuracy    <       0.00000002 Ry

     iteration # 23     ecut=    90.00 Ry     beta= 0.30
     Davidson diagonalization with overlap
     ethr =  3.20E-11,  avg # of iterations =  4.5

     negative rho (up, down):  5.465E-04 0.000E+00

     total cpu time spent up to now is      223.2 secs

     total energy              =    -141.02824969 Ry
     estimated scf accuracy    <       0.00000002 Ry

     iteration # 24     ecut=    90.00 Ry     beta= 0.30
     Davidson diagonalization with overlap
     ethr =  3.20E-11,  avg # of iterations =  1.6

     negative rho (up, down):  5.416E-04 0.000E+00

     total cpu time spent up to now is      231.5 secs

     total energy              =    -141.02824969 Ry
     estimated scf accuracy    <       0.00000001 Ry

     iteration # 25     ecut=    90.00 Ry     beta= 0.30
     Davidson diagonalization with overlap
     ethr =  2.09E-11,  avg # of iterations =  4.0

     negative rho (up, down):  5.126E-04 0.000E+00

     total cpu time spent up to now is      240.2 secs

     End of self-consistent calculation

          k = 0.0000 0.0000 0.0000 (113605 PWs)   bands (ev):

   -20.8155 -19.9150 -18.5740 -16.9695 -15.6508 -15.3926 -15.1079 -14.2614
   -12.9615 -12.1195 -11.5934 -11.2698 -11.2059 -10.3097  -9.9258  -9.3405
    -9.1685  -8.2258  -8.2040  -7.4811  -6.7476  -6.7186  -6.3058  -4.9758
    -3.6611  -3.2551

          k = 0.0250 0.0000 0.0000 (113595 PWs)   bands (ev):

   -20.8118 -19.9114 -18.5708 -16.9683 -15.6714 -15.5388 -14.9591 -14.2531
   -12.9954 -12.1015 -11.5603 -11.3054 -11.1952 -10.2982  -9.8961  -9.3722
    -9.1642  -8.2000  -8.1994  -7.5051  -6.7445  -6.7093  -6.3164  -4.9764
    -3.7057  -3.3101

          k = 0.0500 0.0000 0.0000 (113555 PWs)   bands (ev):

   -20.8007 -19.9006 -18.5611 -16.9648 -15.7692 -15.7310 -14.7210 -14.2296
   -13.0872 -12.0498 -11.4743 -11.3995 -11.1594 -10.2709  -9.8113  -9.4587
    -9.1514  -8.1880  -8.1288  -7.5724  -6.7349  -6.6861  -6.3476  -4.9783
    -3.8262  -3.4405

          k = 0.0750 0.0000 0.0000 (113553 PWs)   bands (ev):

   -20.7822 -19.8826 -18.5449 -16.9593 -16.0072 -15.8239 -14.4704 -14.1940
   -13.2169 -11.9745 -11.5226 -11.3678 -11.0868 -10.2376  -9.6841  -9.5826
    -9.1300  -8.1678  -8.0314  -7.6728  -6.7191  -6.6592  -6.3986  -4.9818
    -3.9968  -3.6044

          k = 0.1000 0.0000 0.0000 (113509 PWs)   bands (ev):

   -20.7563 -19.8574 -18.5223 -16.9521 -16.2445 -15.9431 -14.2163 -14.1496
   -13.3666 -11.9177 -11.6187 -11.2724 -10.9639 -10.2008  -9.7280  -9.5305
    -9.1000  -8.1397  -7.9228  -7.7964  -6.6971  -6.6379  -6.4681  -4.9871
    -4.1961  -3.7830

          k = 0.1250 0.0000 0.0000 (113507 PWs)   bands (ev):

   -20.7230 -19.8251 -18.4934 -16.9440 -16.4787 -16.0819 -14.0988 -13.9624
   -13.5237 -11.9842 -11.5765 -11.1937 -10.7992 -10.1596  -9.8825  -9.3636
    -9.0616  -8.1036  -7.9359  -7.8137  -6.6689  -6.6291  -6.5541  -4.9948
    -4.4112  -3.9690

          k = 0.1500 0.0000 0.0000 (113481 PWs)   bands (ev):

   -20.6823 -19.7856 -18.4582 -16.9358 -16.7088 -16.2347 -14.0430 -13.7362
   -13.6545 -12.1370 -11.4310 -11.1211 -10.6188 -10.1129 -10.0314  -9.1928
    -9.0146  -8.0852  -8.0596  -7.7115  -6.6543  -6.6370  -6.6347  -5.0053
    -4.6343  -4.1589

          k = 0.1750 0.0000 0.0000 (113468 PWs)   bands (ev):

   -20.6343 -19.7390 -18.4169 -16.9433 -16.9195 -16.3972 -13.9833 -13.8465
   -13.4465 -12.3104 -11.2480 -11.0496 -10.4711 -10.1318 -10.0600  -9.0265
    -8.9592  -8.2386  -8.0076  -7.6218  -6.7662  -6.6645  -6.5947  -5.0193
    -4.8609  -4.3507

          k = 0.2000 0.0000 0.0000 (113480 PWs)   bands (ev):

   -20.5790 -19.6853 -18.3696 -17.1567 -16.9214 -16.5658 -13.9915 -13.9200
   -13.1990 -12.4876 -11.0451 -10.9852 -10.4698 -10.0642 -10.0005  -8.8953
    -8.8776  -8.3843  -7.9478  -7.5495  -6.8866  -6.7129  -6.5490  -5.0886
    -5.0371  -4.5432

          k = 0.2250 0.0000 0.0000 (113498 PWs)   bands (ev):

   -20.5163 -19.6245 -18.3164 -17.3723 -16.9196 -16.7381 -14.1264 -13.8542
   -12.9551 -12.6624 -10.9559 -10.8294 -10.5349  -9.9344  -9.8809  -8.8231
    -8.7916  -8.4782  -7.8803  -7.5000  -7.0109  -6.7829  -6.4978  -5.3145
    -5.0602  -4.7354

          k = 0.2500 0.0000 0.0000 (113540 PWs)   bands (ev):

   -20.4463 -19.5568 -18.2576 -17.5826 -16.9228 -16.9119 -14.2472 -13.7876
   -12.8302 -12.7175 -11.0084 -10.6055 -10.5272  -9.8618  -9.6743  -8.8533
    -8.7425  -8.4362  -7.8050  -7.4816  -7.1313  -6.8744  -6.4416  -5.5380
    -5.0886  -4.9265

          k = 0.2750 0.0000 0.0000 (113574 PWs)   bands (ev):

   -20.3690 -19.4821 -18.1934 -17.7872 -17.0857 -16.9329 -14.3511 -13.7244
   -12.9850 -12.4884 -11.1297 -10.4392 -10.3779  -9.7834  -9.4648  -8.9941
    -8.6536  -8.3267  -7.7221  -7.5087  -7.2334  -6.9866  -6.3804  -5.7580
    -5.1229  -5.1157

          k = 0.3000 0.0000 0.0000 (113622 PWs)   bands (ev):

   -20.2845 -19.4005 -18.1242 -17.9861 -17.2582 -16.9515 -14.4359 -13.6753
   -13.1148 -12.2709 -11.2754 -10.3081 -10.1525  -9.7005  -9.2591  -9.1464
    -8.5565  -8.2139  -7.6317  -7.5913  -7.3068  -7.1184  -6.3148  -5.9738
    -5.3026  -5.1635

          k = 0.3250 0.0000 0.0000 (113582 PWs)   bands (ev):

   -20.1928 -19.3121 -18.1790 -18.0503 -17.4284 -16.9800 -14.4996 -13.6640
   -13.1948 -12.0719 -11.4196 -10.1513  -9.9443  -9.6158  -9.2816  -9.0607
    -8.4512  -8.1136  -7.7130  -7.5339  -7.3670  -7.2680  -6.2452  -6.1847
    -5.4864  -5.2105

          k = 0.3500 0.0000 0.0000 (113592 PWs)   bands (ev):

   -20.0939 -19.2170 -18.3658 -17.9726 -17.5950 -17.0192 -14.5410 -13.7140
   -13.2003 -11.9196 -11.5273  -9.9758  -9.8130  -9.5215  -9.3457  -8.8730
    -8.3378  -8.0317  -7.8523  -7.4339  -7.4333  -7.4288  -6.3904  -6.1720
    -5.6667  -5.2639

          k = 0.3750 0.0000 0.0000 (113574 PWs)   bands (ev):

   -19.9879 -19.1153 -18.5462 -17.8938 -17.7553 -17.0692 -14.5599 -13.8109
   -13.1453 -11.9052 -11.5036  -9.8529  -9.7852  -9.3820  -9.2813  -8.6989
    -8.2164  -7.9982  -7.9728  -7.6104  -7.5163  -7.3166  -6.5902  -6.0960
    -5.8430  -5.3235

          k = 0.4000 0.0000 0.0000 (113540 PWs)   bands (ev):

   -19.8748 -19.0074 -18.7200 -17.9263 -17.7969 -17.1296 -14.5564 -13.9255
   -13.0576 -12.0140 -11.3607  -9.9869  -9.5828  -9.2528  -9.1120  -8.5423
    -8.1458  -8.0872  -7.9498  -7.7859  -7.6156  -7.1974  -6.7840  -6.0285
    -6.0037  -5.3886

          k = 0.4250 0.0000 0.0000 (113542 PWs)   bands (ev):

   -19.7546 -18.9060 -18.8744 -18.0774 -17.7128 -17.1991 -14.5319 -14.0423
   -12.9523 -12.1533 -11.1892 -10.1468  -9.3718  -9.1341  -8.9087  -8.4093
    -8.2917  -8.0475  -7.9501  -7.8729  -7.7286  -7.0717  -6.9712  -6.1839
    -5.9353  -5.4587

          k = 0.4500 0.0000 0.0000 (113546 PWs)   bands (ev):

   -19.6275 -19.0507 -18.7697 -18.2266 -17.6241 -17.2761 -14.4877 -14.1540
   -12.8355 -12.2973 -11.0130 -10.3154  -9.1566  -9.0128  -8.7070  -8.4358
    -8.3095  -8.2423  -7.8910  -7.8441  -7.8054  -7.1527  -6.9384  -6.3459
    -5.8538  -5.5330

          k = 0.4750 0.0000 0.0000 (113570 PWs)   bands (ev):

   -19.4934 -19.2048 -18.6429 -18.3709 -17.5344 -17.3588 -14.4258 -14.2568
   -12.7100 -12.4396 -10.8367 -10.4874  -8.9469  -8.8925  -8.5656  -8.5215
    -8.4464  -8.2815  -7.9283  -7.9151  -7.6531  -7.3265  -6.7994  -6.5028
    -5.7719  -5.6106

          k =-0.5000 0.0000 0.0000 (113536 PWs)   bands (ev):

   -19.3525 -19.3525 -18.5098 -18.5098 -17.4455 -17.4455 -14.3482 -14.3482
   -12.5776 -12.5776 -10.6614 -10.6614  -8.8148  -8.8148  -8.6137  -8.6137
    -8.3627  -8.3627  -7.9406  -7.9406  -7.4934  -7.4934  -6.6541  -6.6541
    -5.6905  -5.6905

     highest occupied level (ev):    -3.2551

!    total energy              =    -141.02824967 Ry
     estimated scf accuracy    <          2.3E-09 Ry

     The total energy is the sum of the following terms:
     one-electron contribution =    -917.80807135 Ry
     hartree contribution      =     465.59047042 Ry
     xc contribution           =     -43.30293573 Ry
     ewald contribution        =     354.49228697 Ry

     convergence has been achieved in  25 iterations

     Forces acting on atoms (cartesian axes, Ry/au):

     atom    1 type  1   force =    -0.06480052    0.04441233    0.00000000
     atom    2 type  1   force =    -0.00464320    0.00499891    0.00000000
     atom    3 type  1   force =     0.06480052    0.04441233    0.00000000
     atom    4 type  1   force =     0.01002245   -0.00106124    0.00000000
     atom    5 type  1   force =    -0.01002245    0.00106124    0.00000000
     atom    6 type  1   force =     0.00464320    0.00499891    0.00000000
     atom    7 type  1   force =    -0.01002245   -0.00106124    0.00000000
     atom    8 type  1   force =     0.00464320   -0.00499891    0.00000000
     atom    9 type  1   force =     0.06480052   -0.04441233    0.00000000
     atom   10 type  1   force =     0.01002245    0.00106124    0.00000000
     atom   11 type  1   force =    -0.00464320   -0.00499891    0.00000000
     atom   12 type  1   force =    -0.06480052   -0.04441233    0.00000000
     atom   13 type  2   force =    -0.04324111    0.10976658    0.00000000
     atom   14 type  2   force =     0.04324111    0.10976658    0.00000000
     atom   15 type  2   force =     0.04324111   -0.10976658    0.00000000
     atom   16 type  2   force =    -0.04324111   -0.10976658    0.00000000

     Total force =     0.284522     Total SCF correction =     0.000054


     Computing stress (Cartesian axis) and pressure

          total   stress  (Ry/bohr**3)                   (kbar)     P=      -36.53
  -0.00010916   0.00000000   0.00000000          -16.06        0.00        0.00
   0.00000000  -0.00063587   0.00000000            0.00      -93.54        0.00
   0.00000000   0.00000000   0.00000012            0.00        0.00        0.02


     BFGS Geometry Optimization
     Energy error            =      0.0E+00
     Gradient error          =      1.1E-01
     Cell gradient error     =      6.4E-04


     number of scf cycles    =   1
     number of bfgs steps    =   0

     enthalpy new            =    -141.0282496749 Ry

     new trust radius        =       0.2821516283 bohr
     new conv_thr            =       0.0000000100 Ry

     new unit-cell volume =   7729.26022 a.u.^3 (  1145.35820 Ang^3 )
     density =      0.21480 g/cm^3

CELL_PARAMETERS (alat=  8.05510878)
   0.997271012   0.000000000   0.000000000
   0.000000000   4.213961178   0.000000000
   0.000000000   0.000000000   3.519005728

ATOMIC_POSITIONS (crystal)
C             0.6586220182        0.3108371270        0.5000000000    1   1   0
C             0.8327569039        0.3858746427        0.5000000000    1   1   0
C             0.3413779818        0.3108371270        0.5000000000    1   1   0
C             0.6679109016        0.4618791372        0.5000000000    1   1   0
C             0.8320890984        0.5381208628        0.5000000000    1   1   0
C             0.1672430961        0.3858746427        0.5000000000    1   1   0
C             0.3320890984        0.4618791372        0.5000000000    1   1   0
C             0.6672430961        0.6141253573        0.5000000000    1   1   0
C             0.8413779818        0.6891628730        0.5000000000    1   1   0
C             0.1679109016        0.5381208628        0.5000000000    1   1   0
C             0.3327569039        0.6141253573        0.5000000000    1   1   0
C             0.1586220182        0.6891628730        0.5000000000    1   1   0
H             0.7891553359        0.2542909342        0.5000000000    1   1   0
H             0.2108446641        0.2542909342        0.5000000000    1   1   0
H             0.7108446641        0.7457090658        0.5000000000    1   1   0
H             0.2891553359        0.7457090658        0.5000000000    1   1   0



     Writing output data file ./6AGNR.save/
     NEW-OLD atomic charge density approx. for the potential

     negative rho (up, down):  1.506E-02 0.000E+00
     extrapolated charge   51.02287, renormalised to   52.00000

     total cpu time spent up to now is      246.7 secs

     Self-consistent Calculation

     iteration #  1     ecut=    90.00 Ry     beta= 0.30
     Davidson diagonalization with overlap
     ethr =  1.00E-06,  avg # of iterations = 10.7

     negative rho (up, down):  5.787E-04 0.000E+00

     total cpu time spent up to now is      272.7 secs

     total energy              =    -141.05391638 Ry
     estimated scf accuracy    <       0.23914163 Ry

     iteration #  2     ecut=    90.00 Ry     beta= 0.30
     Davidson diagonalization with overlap
     ethr =  4.60E-04,  avg # of iterations =  3.9

     negative rho (up, down):  3.466E-05 0.000E+00

     total cpu time spent up to now is      282.8 secs

     total energy              =    -141.16039531 Ry
     estimated scf accuracy    <       0.01135237 Ry

     iteration #  3     ecut=    90.00 Ry     beta= 0.30
     Davidson diagonalization with overlap
     ethr =  2.18E-05,  avg # of iterations =  3.8

     negative rho (up, down):  6.030E-07 0.000E+00

     total cpu time spent up to now is      292.3 secs

     total energy              =    -141.16141322 Ry
     estimated scf accuracy    <       0.00799055 Ry

     iteration #  4     ecut=    90.00 Ry     beta= 0.30
     Davidson diagonalization with overlap
     ethr =  1.54E-05,  avg # of iterations =  2.0

     negative rho (up, down):  1.823E-06 0.000E+00

     total cpu time spent up to now is      300.8 secs

     total energy              =    -141.16120730 Ry
     estimated scf accuracy    <       0.00246299 Ry

     iteration #  5     ecut=    90.00 Ry     beta= 0.30
     Davidson diagonalization with overlap
     ethr =  4.74E-06,  avg # of iterations =  3.2

     negative rho (up, down):  6.306E-06 0.000E+00

     total cpu time spent up to now is      309.8 secs

     total energy              =    -141.16153047 Ry
     estimated scf accuracy    <       0.00034220 Ry

     iteration #  6     ecut=    90.00 Ry     beta= 0.30
     Davidson diagonalization with overlap
     ethr =  6.58E-07,  avg # of iterations =  3.7

     negative rho (up, down):  1.029E-05 0.000E+00

     total cpu time spent up to now is      319.3 secs

     total energy              =    -141.16153475 Ry
     estimated scf accuracy    <       0.00011609 Ry

     iteration #  7     ecut=    90.00 Ry     beta= 0.30
     Davidson diagonalization with overlap
     ethr =  2.23E-07,  avg # of iterations =  4.0

     negative rho (up, down):  1.101E-05 0.000E+00

     total cpu time spent up to now is      328.7 secs

     total energy              =    -141.16156571 Ry
     estimated scf accuracy    <       0.00002904 Ry

     iteration #  8     ecut=    90.00 Ry     beta= 0.30
     Davidson diagonalization with overlap
     ethr =  5.58E-08,  avg # of iterations =  2.7

     negative rho (up, down):  2.942E-05 0.000E+00

     total cpu time spent up to now is      337.7 secs

     total energy              =    -141.16157787 Ry
     estimated scf accuracy    <       0.00002167 Ry

     iteration #  9     ecut=    90.00 Ry     beta= 0.30
     Davidson diagonalization with overlap
     ethr =  4.17E-08,  avg # of iterations =  2.7

     negative rho (up, down):  4.183E-05 0.000E+00

     total cpu time spent up to now is      346.1 secs

     total energy              =    -141.16158189 Ry
     estimated scf accuracy    <       0.00000803 Ry

     iteration # 10     ecut=    90.00 Ry     beta= 0.30
     Davidson diagonalization with overlap
     ethr =  1.54E-08,  avg # of iterations =  1.1

     negative rho (up, down):  3.862E-04 0.000E+00

     total cpu time spent up to now is      355.1 secs

     total energy              =    -141.16159460 Ry
     estimated scf accuracy    <       0.00000606 Ry

     iteration # 11     ecut=    90.00 Ry     beta= 0.30
     Davidson diagonalization with overlap
     ethr =  1.17E-08,  avg # of iterations =  2.5

     negative rho (up, down):  4.739E-04 0.000E+00

     total cpu time spent up to now is      365.9 secs

     total energy              =    -141.16159526 Ry
     estimated scf accuracy    <       0.00000357 Ry

     iteration # 12     ecut=    90.00 Ry     beta= 0.30
     Davidson diagonalization with overlap
     ethr =  6.87E-09,  avg # of iterations =  1.1

     negative rho (up, down):  4.681E-04 0.000E+00

     total cpu time spent up to now is      377.3 secs

     total energy              =    -141.16159458 Ry
     estimated scf accuracy    <       0.00000191 Ry

     iteration # 13     ecut=    90.00 Ry     beta= 0.30
     Davidson diagonalization with overlap
     ethr =  3.68E-09,  avg # of iterations =  3.8

     negative rho (up, down):  4.989E-04 0.000E+00

     total cpu time spent up to now is      389.2 secs

     total energy              =    -141.16159505 Ry
     estimated scf accuracy    <       0.00000017 Ry

     iteration # 14     ecut=    90.00 Ry     beta= 0.30
     Davidson diagonalization with overlap
     ethr =  3.19E-10,  avg # of iterations =  4.3

     negative rho (up, down):  5.036E-04 0.000E+00

     total cpu time spent up to now is      401.4 secs

     total energy              =    -141.16159499 Ry
     estimated scf accuracy    <       0.00000021 Ry

     iteration # 15     ecut=    90.00 Ry     beta= 0.30
     Davidson diagonalization with overlap
     ethr =  3.19E-10,  avg # of iterations =  3.0

     negative rho (up, down):  5.065E-04 0.000E+00

     total cpu time spent up to now is      411.5 secs

     total energy              =    -141.16159501 Ry
     estimated scf accuracy    <       0.00000002 Ry

     iteration # 16     ecut=    90.00 Ry     beta= 0.30
     Davidson diagonalization with overlap
     ethr =  2.89E-11,  avg # of iterations =  5.0

     negative rho (up, down):  5.057E-04 0.000E+00

     total cpu time spent up to now is      423.9 secs

     total energy              =    -141.16159502 Ry
     estimated scf accuracy    <       0.00000002 Ry

     iteration # 17     ecut=    90.00 Ry     beta= 0.30
     Davidson diagonalization with overlap
     ethr =  2.89E-11,  avg # of iterations =  2.6

     negative rho (up, down):  5.036E-04 0.000E+00

     total cpu time spent up to now is      430.6 secs

     End of self-consistent calculation

          k = 0.0000 0.0000 0.0000 (113605 PWs)   bands (ev):

   -20.9669 -20.1287 -18.7917 -17.1759 -15.7555 -15.3614 -15.2867 -14.4461
   -13.1010 -12.3187 -11.7282 -11.3857 -11.3596 -10.3366 -10.0318  -9.3960
    -9.2687  -8.3426  -8.3370  -7.3766  -6.8506  -6.6452  -6.2072  -5.0158
    -3.7461  -3.1801

          k = 0.0251 0.0000 0.0000 (113595 PWs)   bands (ev):

   -20.9632 -20.1251 -18.7886 -17.1753 -15.7780 -15.5806 -15.0641 -14.4354
   -13.1340 -12.3011 -11.6925 -11.4211 -11.3528 -10.3151 -10.0128  -9.4267
    -9.2644  -8.3329  -8.3173  -7.4008  -6.8475  -6.6364  -6.2177  -5.0169
    -3.7859  -3.2449

          k = 0.0501 0.0000 0.0000 (113555 PWs)   bands (ev):

   -20.9520 -20.1145 -18.7794 -17.1737 -15.8426 -15.8292 -14.8056 -14.4055
   -13.2235 -12.2502 -11.5974 -11.5147 -11.3303 -10.2658  -9.9521  -9.5104
    -9.2514  -8.3207  -8.2500  -7.4683  -6.8381  -6.6145  -6.2490  -5.0201
    -3.8959  -3.3917

          k = 0.0752 0.0000 0.0000 (113553 PWs)   bands (ev):

   -20.9334 -20.0967 -18.7642 -17.1715 -16.0738 -15.9419 -14.5443 -14.3614
   -13.3497 -12.1734 -11.6391 -11.4732 -11.2813 -10.2135  -9.8478  -9.6300
    -9.2298  -8.3004  -8.1577  -7.5688  -6.8226  -6.5899  -6.3002  -5.0257
    -4.0556  -3.5699

          k = 0.1003 0.0000 0.0000 (113509 PWs)   bands (ev):

   -20.9075 -20.0718 -18.7429 -17.1700 -16.3126 -16.0674 -14.3083 -14.2819
   -13.4952 -12.0971 -11.7541 -11.3690 -11.1747 -10.1658  -9.7703  -9.7102
    -9.1995  -8.2720  -8.0552  -7.6927  -6.8010  -6.5721  -6.3699  -5.0342
    -4.2463  -3.7607

          k = 0.1253 0.0000 0.0000 (113507 PWs)   bands (ev):

   -20.8741 -20.0399 -18.7158 -17.1714 -16.5435 -16.2115 -14.2501 -14.0207
   -13.6473 -12.1126 -11.7612 -11.3015 -11.0067 -10.1194  -9.9201  -9.5542
    -9.1606  -8.2355  -7.9529  -7.8327  -6.7734  -6.5675  -6.4564  -5.0465
    -4.4545  -3.9574

          k = 0.1504 0.0000 0.0000 (113481 PWs)   bands (ev):

   -20.8333 -20.0010 -18.6830 -17.1821 -16.7605 -16.3684 -14.1887 -13.8268
   -13.7333 -12.2414 -11.6372 -11.2456 -10.8130 -10.0708 -10.0695  -9.3908
    -9.1132  -8.1910  -7.9837  -7.8577  -6.7400  -6.5806  -6.5577  -5.0647
    -4.6703  -4.1567

          k = 0.1755 0.0000 0.0000 (113468 PWs)   bands (ev):

   -20.7852 -19.9552 -18.6447 -17.2232 -16.9432 -16.5334 -14.1256 -13.9594
   -13.4902 -12.4026 -11.4627 -11.1936 -10.6170 -10.2033 -10.0178  -9.2276
    -9.0572  -8.1416  -8.1386  -7.7744  -6.7010  -6.6715  -6.6138  -5.0962
    -4.8818  -4.3569

          k = 0.2005 0.0000 0.0000 (113480 PWs)   bands (ev):

   -20.7297 -19.9024 -18.6012 -17.3408 -17.0463 -16.7030 -14.0997 -14.0615
   -13.2347 -12.5693 -11.2654 -11.1508 -10.4766 -10.2583  -9.9598  -9.0701
    -8.9926  -8.3025  -8.0782  -7.7069  -6.7955  -6.6686  -6.6566  -5.1896
    -5.0374  -4.5567

          k = 0.2256 0.0000 0.0000 (113498 PWs)   bands (ev):

   -20.6668 -19.8428 -18.5531 -17.5215 -17.0842 -16.8745 -14.2294 -13.9980
   -12.9838 -12.7325 -11.1340 -11.0543 -10.4903 -10.1189  -9.8967  -8.9255
    -8.9196  -8.4601  -8.0100  -7.6584  -6.9273  -6.7454  -6.6073  -5.3838
    -5.0968  -4.7551

          k = 0.2507 0.0000 0.0000 (113540 PWs)   bands (ev):

   -20.5967 -19.7765 -18.5009 -17.7192 -17.1045 -17.0454 -14.3452 -13.9375
   -12.8862 -12.7404 -11.1651 -10.8350 -10.5016  -9.9188  -9.8290  -8.8381
    -8.8188  -8.5894  -7.9342  -7.6316  -7.0641  -6.8439  -6.5533  -5.6007
    -5.1368  -4.9512

          k = 0.2758 0.0000 0.0000 (113574 PWs)   bands (ev):

   -20.5193 -19.7036 -18.4457 -17.9181 -17.2135 -17.1240 -14.4446 -13.8853
   -13.0232 -12.5083 -11.2461 -10.6121 -10.4516  -9.7584  -9.7133  -8.8550
    -8.7483  -8.5840  -7.8507  -7.6295  -7.2030  -6.9632  -6.4955  -5.8190
    -5.1780  -5.1440

          k = 0.3008 0.0000 0.0000 (113622 PWs)   bands (ev):

   -20.4347 -19.6245 -18.3894 -18.1136 -17.3761 -17.1485 -14.5256 -13.8515
   -13.1317 -12.2937 -11.3532 -10.3914 -10.3511  -9.6879  -9.5112  -8.9808
    -8.6502  -8.4924  -7.7597  -7.6556  -7.3399  -7.1021  -6.4347  -6.0347
    -5.3323  -5.2236

          k = 0.3259 0.0000 0.0000 (113582 PWs)   bands (ev):

   -20.3429 -19.5394 -18.3355 -18.3037 -17.5292 -17.1805 -14.5865 -13.8511
   -13.1956 -12.1120 -11.4541 -10.2157 -10.1837  -9.6232  -9.3163  -9.0961
    -8.5438  -8.4024  -7.7134  -7.6616  -7.4701  -7.2586  -6.3728  -6.2462
    -5.5143  -5.2745

          k = 0.3510 0.0000 0.0000 (113592 PWs)   bands (ev):

   -20.2440 -19.4491 -18.4871 -18.2913 -17.6650 -17.2212 -14.6264 -13.8941
   -13.2038 -12.0053 -11.4966 -10.0553 -10.0169  -9.5654  -9.1616  -9.1312
    -8.4293  -8.3283  -7.8041  -7.5909  -7.5566  -7.4306  -6.4522  -6.3134
    -5.6860  -5.3311

          k = 0.3760 0.0000 0.0000 (113574 PWs)   bands (ev):

   -20.1381 -19.3553 -18.6620 -18.2724 -17.7678 -17.2708 -14.6451 -13.9727
   -13.1631 -12.0223 -11.4269  -9.9536  -9.8758  -9.4765  -9.1529  -8.9583
    -8.3067  -8.2745  -7.9200  -7.7078  -7.6151  -7.4455  -6.6519  -6.2674
    -5.8370  -5.3928

          k = 0.4011 0.0000 0.0000 (113540 PWs)   bands (ev):

   -20.0252 -19.2631 -18.8230 -18.3013 -17.8151 -17.3289 -14.6430 -14.0700
   -13.0896 -12.1207 -11.2836 -10.0127  -9.6823  -9.3278  -9.0819  -8.8000
    -8.2436  -8.1763  -8.0484  -7.8307  -7.8083  -7.3302  -6.8428  -6.2667
    -5.9353  -5.4594

          k = 0.4262 0.0000 0.0000 (113542 PWs)   bands (ev):

   -19.9057 -19.1985 -18.9443 -18.3818 -17.8035 -17.3943 -14.6210 -14.1729
   -12.9954 -12.2468 -11.1175 -10.1350  -9.4799  -9.1643  -8.9674  -8.6591
    -8.2400  -8.1781  -8.0381  -8.0022  -7.9657  -7.2240  -7.0117  -6.3485
    -5.9440  -5.5300

          k = 0.4512 0.0000 0.0000 (113546 PWs)   bands (ev):

   -19.7796 -19.2455 -18.9423 -18.4920 -17.7551 -17.4654 -14.5806 -14.2738
   -12.8875 -12.3804 -10.9464 -10.2827  -9.2762  -9.0272  -8.8150  -8.5411
    -8.2976  -8.2837  -8.1680  -8.1145  -7.8924  -7.2573  -7.0283  -6.4798
    -5.8963  -5.6037

          k = 0.4763 0.0000 0.0000 (113570 PWs)   bands (ev):

   -19.6476 -19.3720 -18.8495 -18.6129 -17.6893 -17.5401 -14.5236 -14.3678
   -12.7698 -12.5141 -10.7756 -10.4419  -9.0863  -8.9399  -8.6410  -8.4766
    -8.4041  -8.3661  -8.2740  -8.2509  -7.7394  -7.4155  -6.9074  -6.6240
    -5.8291  -5.6793

          k =-0.5014 0.0000 0.0000 (113536 PWs)   bands (ev):

   -19.5107 -19.5107 -18.7345 -18.7345 -17.6158 -17.6158 -14.4519 -14.4519
   -12.6447 -12.6447 -10.6069 -10.6069  -8.9517  -8.9517  -8.4996  -8.4996
    -8.4413  -8.4413  -8.3125  -8.3125  -7.5798  -7.5798  -6.7685  -6.7685
    -5.7552  -5.7552

     highest occupied level (ev):    -3.1801

!    total energy              =    -141.16159502 Ry
     estimated scf accuracy    <          5.2E-09 Ry

     The total energy is the sum of the following terms:
     one-electron contribution =    -933.06874184 Ry
     hartree contribution      =     473.31090877 Ry
     xc contribution           =     -43.73159330 Ry
     ewald contribution        =     362.32783136 Ry

     convergence has been achieved in  17 iterations

     Forces acting on atoms (cartesian axes, Ry/au):

     atom    1 type  1   force =     0.05202786    0.05044672    0.00000000
     atom    2 type  1   force =    -0.00366262    0.01435193    0.00000000
     atom    3 type  1   force =    -0.05202786    0.05044672    0.00000000
     atom    4 type  1   force =     0.00268021    0.00181116    0.00000000
     atom    5 type  1   force =    -0.00268021   -0.00181116    0.00000000
     atom    6 type  1   force =     0.00366262    0.01435193    0.00000000
     atom    7 type  1   force =    -0.00268021    0.00181116    0.00000000
     atom    8 type  1   force =     0.00366262   -0.01435193    0.00000000
     atom    9 type  1   force =    -0.05202786   -0.05044672    0.00000000
     atom   10 type  1   force =     0.00268021   -0.00181116    0.00000000
     atom   11 type  1   force =    -0.00366262   -0.01435193    0.00000000
     atom   12 type  1   force =     0.05202786   -0.05044672    0.00000000
     atom   13 type  2   force =    -0.03135713    0.07679872    0.00000000
     atom   14 type  2   force =     0.03135713    0.07679872    0.00000000
     atom   15 type  2   force =     0.03135713   -0.07679872    0.00000000
     atom   16 type  2   force =    -0.03135713   -0.07679872    0.00000000

     Total force =     0.222378     Total SCF correction =     0.000139


     Computing stress (Cartesian axis) and pressure

          total   stress  (Ry/bohr**3)                   (kbar)     P=      -27.46
  -0.00003151   0.00000000   0.00000000           -4.64        0.00        0.00
   0.00000000  -0.00052863   0.00000000            0.00      -77.76        0.00
   0.00000000   0.00000000   0.00000010            0.00        0.00        0.01

     Energy error            =      1.3E-01
     Gradient error          =      7.7E-02
     Cell gradient error     =      5.3E-04


     number of scf cycles    =   2
     number of bfgs steps    =   1

     enthalpy old            =    -141.0282496749 Ry
     enthalpy new            =    -141.1615950202 Ry

     CASE: enthalpy_new < enthalpy_old

     new trust radius        =       0.3124367863 bohr
     new conv_thr            =       0.0000000077 Ry

     new unit-cell volume =   7577.48497 a.u.^3 (  1122.86742 Ang^3 )
     density =      0.21910 g/cm^3

CELL_PARAMETERS (alat=  8.05510878)
   0.995371769   0.000000000   0.000000000
   0.000000000   4.139083264   0.000000000
   0.000000000   0.000000000   3.519017057

ATOMIC_POSITIONS (crystal)
C             0.6594935605        0.3125291330        0.5000000000    1   1   0
C             0.8321409591        0.3862485697        0.5000000000    1   1   0
C             0.3405064395        0.3125291330        0.5000000000    1   1   0
C             0.6687607636        0.4619025175        0.5000000000    1   1   0
C             0.8312392364        0.5380974825        0.5000000000    1   1   0
C             0.1678590409        0.3862485697        0.5000000000    1   1   0
C             0.3312392364        0.4619025175        0.5000000000    1   1   0
C             0.6678590409        0.6137514303        0.5000000000    1   1   0
C             0.8405064395        0.6874708670        0.5000000000    1   1   0
C             0.1687607636        0.5380974825        0.5000000000    1   1   0
C             0.3321409591        0.6137514303        0.5000000000    1   1   0
C             0.1594935605        0.6874708670        0.5000000000    1   1   0
H             0.7836717933        0.2574599188        0.5000000000    1   1   0
H             0.2163282067        0.2574599188        0.5000000000    1   1   0
H             0.7163282067        0.7425400812        0.5000000000    1   1   0
H             0.2836717933        0.7425400812        0.5000000000    1   1   0



     Writing output data file ./6AGNR.save/
     NEW-OLD atomic charge density approx. for the potential

     negative rho (up, down):  1.527E-02 0.000E+00
     extrapolated charge   50.96617, renormalised to   52.00000

     total cpu time spent up to now is      437.1 secs

     Self-consistent Calculation

     iteration #  1     ecut=    90.00 Ry     beta= 0.30
     Davidson diagonalization with overlap
     ethr =  1.00E-06,  avg # of iterations = 11.7

     negative rho (up, down):  5.506E-04 0.000E+00

     total cpu time spent up to now is      461.2 secs

     total energy              =    -141.14618806 Ry
     estimated scf accuracy    <       0.25791608 Ry

     iteration #  2     ecut=    90.00 Ry     beta= 0.30
     Davidson diagonalization with overlap
     ethr =  4.96E-04,  avg # of iterations =  3.9

     negative rho (up, down):  4.769E-05 0.000E+00

     total cpu time spent up to now is      472.0 secs

     total energy              =    -141.26519848 Ry
     estimated scf accuracy    <       0.00846871 Ry

     iteration #  3     ecut=    90.00 Ry     beta= 0.30
     Davidson diagonalization with overlap
     ethr =  1.63E-05,  avg # of iterations =  3.9

     negative rho (up, down):  5.717E-05 0.000E+00

     total cpu time spent up to now is      482.0 secs

     total energy              =    -141.26922823 Ry
     estimated scf accuracy    <       0.00822503 Ry

     iteration #  4     ecut=    90.00 Ry     beta= 0.30
     Davidson diagonalization with overlap
     ethr =  1.58E-05,  avg # of iterations =  1.0

     negative rho (up, down):  1.108E-05 0.000E+00

     total cpu time spent up to now is      491.7 secs

     total energy              =    -141.26529366 Ry
     estimated scf accuracy    <       0.00899248 Ry

     iteration #  5     ecut=    90.00 Ry     beta= 0.30
     Davidson diagonalization with overlap
     ethr =  1.58E-05,  avg # of iterations =  3.0

     negative rho (up, down):  7.805E-06 0.000E+00

     total cpu time spent up to now is      500.7 secs

     total energy              =    -141.26706191 Ry
     estimated scf accuracy    <       0.00069612 Ry

     iteration #  6     ecut=    90.00 Ry     beta= 0.30
     Davidson diagonalization with overlap
     ethr =  1.34E-06,  avg # of iterations =  3.7

     negative rho (up, down):  5.968E-06 0.000E+00

     total cpu time spent up to now is      509.6 secs

     total energy              =    -141.26704998 Ry
     estimated scf accuracy    <       0.00036920 Ry

     iteration #  7     ecut=    90.00 Ry     beta= 0.30
     Davidson diagonalization with overlap
     ethr =  7.10E-07,  avg # of iterations =  2.1

     negative rho (up, down):  1.843E-05 0.000E+00

     total cpu time spent up to now is      518.3 secs

     total energy              =    -141.26705975 Ry
     estimated scf accuracy    <       0.00014013 Ry

     iteration #  8     ecut=    90.00 Ry     beta= 0.30
     Davidson diagonalization with overlap
     ethr =  2.69E-07,  avg # of iterations =  2.7

     negative rho (up, down):  4.314E-05 0.000E+00

     total cpu time spent up to now is      528.2 secs

     total energy              =    -141.26708125 Ry
     estimated scf accuracy    <       0.00004442 Ry

     iteration #  9     ecut=    90.00 Ry     beta= 0.30
     Davidson diagonalization with overlap
     ethr =  8.54E-08,  avg # of iterations =  4.0

     negative rho (up, down):  1.529E-04 0.000E+00

     total cpu time spent up to now is      537.7 secs

     total energy              =    -141.26709099 Ry
     estimated scf accuracy    <       0.00001006 Ry

     iteration # 10     ecut=    90.00 Ry     beta= 0.30
     Davidson diagonalization with overlap
     ethr =  1.94E-08,  avg # of iterations =  5.1

     negative rho (up, down):  1.785E-04 0.000E+00

     total cpu time spent up to now is      551.0 secs

     total energy              =    -141.26709617 Ry
     estimated scf accuracy    <       0.00001960 Ry

     iteration # 11     ecut=    90.00 Ry     beta= 0.30
     Davidson diagonalization with overlap
     ethr =  1.94E-08,  avg # of iterations =  2.3

     negative rho (up, down):  3.687E-04 0.000E+00

     total cpu time spent up to now is      561.3 secs

     total energy              =    -141.26709728 Ry
     estimated scf accuracy    <       0.00000597 Ry

     iteration # 12     ecut=    90.00 Ry     beta= 0.30
     Davidson diagonalization with overlap
     ethr =  1.15E-08,  avg # of iterations =  5.1

     negative rho (up, down):  3.882E-04 0.000E+00

     total cpu time spent up to now is      575.5 secs

     total energy              =    -141.26709876 Ry
     estimated scf accuracy    <       0.00000742 Ry

     iteration # 13     ecut=    90.00 Ry     beta= 0.30
     Davidson diagonalization with overlap
     ethr =  1.15E-08,  avg # of iterations =  2.6

     negative rho (up, down):  4.833E-04 0.000E+00

     total cpu time spent up to now is      586.8 secs

     total energy              =    -141.26709943 Ry
     estimated scf accuracy    <       0.00000056 Ry

     iteration # 14     ecut=    90.00 Ry     beta= 0.30
     Davidson diagonalization with overlap
     ethr =  1.08E-09,  avg # of iterations =  4.4

     negative rho (up, down):  4.819E-04 0.000E+00

     total cpu time spent up to now is      598.6 secs

     total energy              =    -141.26709963 Ry
     estimated scf accuracy    <       0.00000013 Ry

     iteration # 15     ecut=    90.00 Ry     beta= 0.30
     Davidson diagonalization with overlap
     ethr =  2.49E-10,  avg # of iterations =  2.0

     negative rho (up, down):  4.799E-04 0.000E+00

     total cpu time spent up to now is      607.9 secs

     total energy              =    -141.26709962 Ry
     estimated scf accuracy    <       0.00000019 Ry

     iteration # 16     ecut=    90.00 Ry     beta= 0.30
     Davidson diagonalization with overlap
     ethr =  2.49E-10,  avg # of iterations =  1.0

     negative rho (up, down):  4.710E-04 0.000E+00

     total cpu time spent up to now is      616.8 secs

     total energy              =    -141.26709955 Ry
     estimated scf accuracy    <       0.00000015 Ry

     iteration # 17     ecut=    90.00 Ry     beta= 0.30
     Davidson diagonalization with overlap
     ethr =  2.49E-10,  avg # of iterations =  2.8

     negative rho (up, down):  4.703E-04 0.000E+00

     total cpu time spent up to now is      627.0 secs

     total energy              =    -141.26709957 Ry
     estimated scf accuracy    <       0.00000002 Ry

     iteration # 18     ecut=    90.00 Ry     beta= 0.30
     Davidson diagonalization with overlap
     ethr =  3.82E-11,  avg # of iterations =  3.2

     negative rho (up, down):  4.706E-04 0.000E+00

     total cpu time spent up to now is      637.3 secs

     total energy              =    -141.26709957 Ry
     estimated scf accuracy    <       0.00000001 Ry

     iteration # 19     ecut=    90.00 Ry     beta= 0.30
     Davidson diagonalization with overlap
     ethr =  2.01E-11,  avg # of iterations =  2.0

     negative rho (up, down):  4.731E-04 0.000E+00

     total cpu time spent up to now is      646.3 secs

     total energy              =    -141.26709957 Ry
     estimated scf accuracy    <       0.00000001 Ry

     iteration # 20     ecut=    90.00 Ry     beta= 0.30
     Davidson diagonalization with overlap
     ethr =  2.01E-11,  avg # of iterations =  3.5

     negative rho (up, down):  4.733E-04 0.000E+00

     total cpu time spent up to now is      653.7 secs

     End of self-consistent calculation

          k = 0.0000 0.0000 0.0000 (113605 PWs)   bands (ev):

   -21.1638 -20.3230 -18.8807 -17.1479 -15.6666 -15.5773 -15.3382 -14.7873
   -13.3953 -12.5410 -11.8572 -11.6188 -11.4723 -10.3756  -9.9565  -9.5972
    -9.4046  -8.4438  -8.2160  -7.5715  -6.8310  -6.4678  -6.3191  -4.8504
    -3.9329  -2.9154

          k = 0.0251 0.0000 0.0000 (113595 PWs)   bands (ev):

   -21.1601 -20.3194 -18.8776 -17.1474 -15.7419 -15.7014 -15.1695 -14.7633
   -13.4255 -12.5247 -11.8243 -11.6479 -11.4663 -10.3556  -9.9424  -9.6197
    -9.4002  -8.4397  -8.1993  -7.5883  -6.8277  -6.4665  -6.3287  -4.8518
    -3.9670  -3.0714

          k = 0.0502 0.0000 0.0000 (113555 PWs)   bands (ev):

   -21.1489 -20.3086 -18.8681 -17.1461 -15.9824 -15.7954 -14.9166 -14.7013
   -13.5087 -12.4774 -11.7349 -11.7267 -11.4470 -10.3048  -9.8981  -9.6832
    -9.3871  -8.4273  -8.1529  -7.6372  -6.8181  -6.4639  -6.3573  -4.8561
    -4.0631  -3.2806

          k = 0.0753 0.0000 0.0000 (113553 PWs)   bands (ev):

   -21.1303 -20.2907 -18.8524 -17.1451 -16.2249 -15.9289 -14.6529 -14.6195
   -13.6286 -12.4062 -11.8343 -11.6137 -11.4060 -10.2420  -9.8211  -9.7785
    -9.3653  -8.4066  -8.0860  -7.7141  -6.8021  -6.4640  -6.4040  -4.8638
    -4.2070  -3.4940

          k = 0.1005 0.0000 0.0000 (113509 PWs)   bands (ev):

   -21.1042 -20.2656 -18.8306 -17.1464 -16.4613 -16.0860 -14.5308 -14.3852
   -13.7695 -12.3344 -11.9355 -11.5044 -11.3160 -10.1805  -9.8949  -9.7132
    -9.3348  -8.3777  -8.0088  -7.8138  -6.7799  -6.4715  -6.4678  -4.8758
    -4.3830  -3.7085

          k = 0.1256 0.0000 0.0000 (113507 PWs)   bands (ev):

   -21.0706 -20.2334 -18.8026 -17.1562 -16.6847 -16.2572 -14.4419 -14.1155
   -13.9201 -12.3333 -11.9524 -11.4358 -11.1610 -10.1229 -10.0226  -9.5828
    -9.2955  -8.3407  -7.9311  -7.9300  -6.7514  -6.5472  -6.4910  -4.8947
    -4.5770  -3.9232

          k = 0.1507 0.0000 0.0000 (113481 PWs)   bands (ev):

   -21.0296 -20.1941 -18.7688 -17.1936 -16.8759 -16.4363 -14.3553 -14.0726
   -13.8453 -12.4387 -11.8460 -11.3859 -10.9741 -10.1514 -10.0669  -9.4403
    -9.2476  -8.2954  -8.0614  -7.8563  -6.7170  -6.6403  -6.5261  -4.9339
    -4.7678  -4.1371

          k = 0.1758 0.0000 0.0000 (113468 PWs)   bands (ev):

   -20.9813 -20.1478 -18.7293 -17.3032 -16.9911 -16.6196 -14.2719 -14.2213
   -13.5763 -12.5870 -11.6793 -11.3432 -10.7817 -10.2671 -10.0099  -9.2943
    -9.1911  -8.2421  -8.2002  -7.7931  -6.7453  -6.6767  -6.5794  -5.0614
    -4.8823  -4.3498

          k = 0.2009 0.0000 0.0000 (113480 PWs)   bands (ev):

   -20.9255 -20.0945 -18.6846 -17.4825 -17.0336 -16.8041 -14.3621 -14.1919
   -13.3100 -12.7458 -11.4848 -11.3106 -10.6196 -10.3304  -9.9503  -9.1525
    -9.1259  -8.3426  -8.1806  -7.7445  -6.8598  -6.6525  -6.6309  -5.2668
    -4.9275  -4.5605

          k = 0.2260 0.0000 0.0000 (113498 PWs)   bands (ev):

   -20.8624 -20.0343 -18.6350 -17.6845 -17.0521 -16.9877 -14.4914 -14.1163
   -13.0485 -12.9034 -11.2994 -11.2740 -10.5706 -10.2462  -9.8876  -9.0522
    -9.0235  -8.4814  -8.1113  -7.7142  -6.9818  -6.7460  -6.5799  -5.4863
    -4.9650  -4.7686

          k = 0.2512 0.0000 0.0000 (113540 PWs)   bands (ev):

   -20.7919 -19.9673 -18.5813 -17.8897 -17.1684 -17.0673 -14.6060 -14.0476
   -13.0522 -12.7949 -11.3233 -11.0529 -10.5700 -10.0641  -9.8225  -8.9700
    -8.9273  -8.5963  -8.0340  -7.7050  -7.1089  -6.8601  -6.5241  -5.7077
    -5.0056  -4.9733

          k = 0.2763 0.0000 0.0000 (113574 PWs)   bands (ev):

   -20.7141 -19.8936 -18.5249 -18.0924 -17.3441 -17.0866 -14.7032 -13.9919
   -13.1831 -12.5538 -11.3851 -10.8263 -10.5324  -9.8639  -9.7572  -8.9206
    -8.8794  -8.6292  -7.9489  -7.7193  -7.2387  -6.9939  -6.4642  -5.9277
    -5.1738  -5.0514

          k = 0.3014 0.0000 0.0000 (113622 PWs)   bands (ev):

   -20.6291 -19.8136 -18.4680 -18.2904 -17.5118 -17.1135 -14.7806 -13.9613
   -13.2817 -12.3338 -11.4682 -10.5990 -10.4493  -9.6968  -9.6637  -9.0034
    -8.7803  -8.5743  -7.8563  -7.7591  -7.3688  -7.1463  -6.4015  -6.1446
    -5.3688  -5.1032

          k = 0.3265 0.0000 0.0000 (113582 PWs)   bands (ev):

   -20.5368 -19.7275 -18.4824 -18.4154 -17.6665 -17.1501 -14.8365 -13.9723
   -13.3298 -12.1571 -11.5387 -10.3785 -10.3294  -9.6508  -9.4689  -9.0916
    -8.6730  -8.5029  -7.8249  -7.7562  -7.4979  -7.3154  -6.3571  -6.3380
    -5.5560  -5.1610

          k = 0.3516 0.0000 0.0000 (113592 PWs)   bands (ev):

   -20.4374 -19.6362 -18.6674 -18.3776 -17.7975 -17.1972 -14.8699 -14.0306
   -13.3204 -12.0740 -11.5371 -10.1814 -10.1804  -9.6280  -9.2829  -9.1373
    -8.5574  -8.4417  -7.9148  -7.6491  -7.6265  -7.4991  -6.5644  -6.2793
    -5.7300  -5.2247

          k = 0.3767 0.0000 0.0000 (113574 PWs)   bands (ev):

   -20.3309 -19.5413 -18.8434 -18.3756 -17.8838 -17.2547 -14.8808 -14.1224
   -13.2662 -12.1109 -11.4319 -10.0546 -10.0083  -9.5967  -9.1217  -9.1081
    -8.4337  -8.3990  -8.0238  -7.7574  -7.6940  -7.5356  -6.7653  -6.2429
    -5.8735  -5.2939

          k = 0.4019 0.0000 0.0000 (113540 PWs)   bands (ev):

   -20.2175 -19.4485 -19.0047 -18.4300 -17.9049 -17.3218 -14.8699 -14.2297
   -13.1841 -12.2126 -11.2742 -10.0583  -9.8178  -9.4845  -9.0581  -8.9467
    -8.3792  -8.3021  -8.1459  -7.8955  -7.8943  -7.4181  -6.9572  -6.2759
    -5.9393  -5.3678

          k = 0.4270 0.0000 0.0000 (113542 PWs)   bands (ev):

   -20.0973 -19.3849 -19.1243 -18.5304 -17.8713 -17.3969 -14.8388 -14.3409
   -13.0848 -12.3369 -11.1030 -10.1548  -9.6140  -9.3137  -8.9670  -8.8011
    -8.3883  -8.2754  -8.1626  -8.0937  -8.0391  -7.3133  -7.1233  -6.3918
    -5.9143  -5.4457

          k = 0.4521 0.0000 0.0000 (113546 PWs)   bands (ev):

   -19.9706 -19.4339 -19.1191 -18.6521 -17.8082 -17.4778 -14.7892 -14.4493
   -12.9741 -12.4682 -10.9310 -10.2888  -9.4034  -9.1373  -8.8631  -8.6743
    -8.4403  -8.4069  -8.2622  -8.1908  -8.0155  -7.3702  -7.1143  -6.5389
    -5.8505  -5.5266

          k = 0.4772 0.0000 0.0000 (113570 PWs)   bands (ev):

   -19.8378 -19.5610 -19.0241 -18.7798 -17.7312 -17.5623 -14.7232 -14.5510
   -12.8550 -12.6002 -10.7622 -10.4389  -9.1973  -9.0042  -8.7682  -8.5937
    -8.5174  -8.5108  -8.3697  -8.3430  -7.8610  -7.5335  -6.9860  -6.6916
    -5.7738  -5.6092

          k =-0.5023 0.0000 0.0000 (113536 PWs)   bands (ev):

   -19.7002 -19.7002 -18.9059 -18.9059 -17.6477 -17.6477 -14.6431 -14.6431
   -12.7298 -12.7298 -10.5977 -10.5977  -9.0284  -9.0284  -8.6829  -8.6829
    -8.4764  -8.4764  -8.4517  -8.4517  -7.6999  -7.6999  -6.8420  -6.8420
    -5.6923  -5.6923

     highest occupied level (ev):    -2.9154

!    total energy              =    -141.26709957 Ry
     estimated scf accuracy    <          1.4E-09 Ry

     The total energy is the sum of the following terms:
     one-electron contribution =    -948.94255892 Ry
     hartree contribution      =     481.33717688 Ry
     xc contribution           =     -44.13000826 Ry
     ewald contribution        =     370.46829072 Ry

     convergence has been achieved in  20 iterations

     Forces acting on atoms (cartesian axes, Ry/au):

     atom    1 type  1   force =     0.02618224    0.06886300    0.00000000
     atom    2 type  1   force =    -0.00677927    0.02086597    0.00000000
     atom    3 type  1   force =    -0.02618224    0.06886300    0.00000000
     atom    4 type  1   force =    -0.00675549    0.00163817    0.00000000
     atom    5 type  1   force =     0.00675549   -0.00163817    0.00000000
     atom    6 type  1   force =     0.00677927    0.02086597    0.00000000
     atom    7 type  1   force =     0.00675549    0.00163817    0.00000000
     atom    8 type  1   force =     0.00677927   -0.02086597    0.00000000
     atom    9 type  1   force =    -0.02618224   -0.06886300    0.00000000
     atom   10 type  1   force =    -0.00675549   -0.00163817    0.00000000
     atom   11 type  1   force =    -0.00677927   -0.02086597    0.00000000
     atom   12 type  1   force =     0.02618224   -0.06886300    0.00000000
     atom   13 type  2   force =    -0.00550204    0.02860652    0.00000000
     atom   14 type  2   force =     0.00550204    0.02860652    0.00000000
     atom   15 type  2   force =     0.00550204   -0.02860652    0.00000000
     atom   16 type  2   force =    -0.00550204   -0.02860652    0.00000000

     Total force =     0.164996     Total SCF correction =     0.000081


     Computing stress (Cartesian axis) and pressure

          total   stress  (Ry/bohr**3)                   (kbar)     P=      -18.86
   0.00000759   0.00000000   0.00000000            1.12        0.00        0.00
   0.00000000  -0.00039229   0.00000000            0.00      -57.71        0.00
   0.00000000   0.00000000   0.00000010            0.00        0.00        0.01

     Energy error            =      1.1E-01
     Gradient error          =      6.9E-02
     Cell gradient error     =      3.9E-04


     number of scf cycles    =   3
     number of bfgs steps    =   2

     enthalpy old            =    -141.1615950202 Ry
     enthalpy new            =    -141.2670995690 Ry

     CASE: enthalpy_new < enthalpy_old

     new trust radius        =       0.4724255372 bohr
     new conv_thr            =       0.0000000069 Ry

     new unit-cell volume =   7360.20869 a.u.^3 (  1090.67040 Ang^3 )
     density =      0.22557 g/cm^3

CELL_PARAMETERS (alat=  8.05510878)
   0.993792171   0.000000000   0.000000000
   0.000000000   4.026766393   0.000000000
   0.000000000   0.000000000   3.519037479

ATOMIC_POSITIONS (crystal)
C             0.6588736906        0.3164612462        0.5000000000    1   1   0
C             0.8304166925        0.3872704616        0.5000000000    1   1   0
C             0.3411263094        0.3164612462        0.5000000000    1   1   0
C             0.6682822059        0.4619528673        0.5000000000    1   1   0
C             0.8317177941        0.5380471327        0.5000000000    1   1   0
C             0.1695833075        0.3872704616        0.5000000000    1   1   0
C             0.3317177941        0.4619528673        0.5000000000    1   1   0
C             0.6695833075        0.6127295384        0.5000000000    1   1   0
C             0.8411263094        0.6835387538        0.5000000000    1   1   0
C             0.1682822059        0.5380471327        0.5000000000    1   1   0
C             0.3304166925        0.6127295384        0.5000000000    1   1   0
C             0.1588736906        0.6835387538        0.5000000000    1   1   0
H             0.7789749030        0.2608841885        0.5000000000    1   1   0
H             0.2210250970        0.2608841885        0.5000000000    1   1   0
H             0.7210250970        0.7391158115        0.5000000000    1   1   0
H             0.2789749030        0.7391158115        0.5000000000    1   1   0



     Writing output data file ./6AGNR.save/
     NEW-OLD atomic charge density approx. for the potential

     negative rho (up, down):  2.053E-02 0.000E+00
     extrapolated charge   50.47632, renormalised to   52.00000

     total cpu time spent up to now is      660.2 secs

     Self-consistent Calculation

     iteration #  1     ecut=    90.00 Ry     beta= 0.30
     Davidson diagonalization with overlap
     ethr =  1.00E-06,  avg # of iterations = 11.2

     negative rho (up, down):  5.251E-04 0.000E+00

     total cpu time spent up to now is      685.4 secs

     total energy              =    -141.10263518 Ry
     estimated scf accuracy    <       0.54871376 Ry

     iteration #  2     ecut=    90.00 Ry     beta= 0.30
     Davidson diagonalization with overlap
     ethr =  1.06E-03,  avg # of iterations =  3.9

     negative rho (up, down):  5.332E-05 0.000E+00

     total cpu time spent up to now is      696.4 secs

     total energy              =    -141.35615353 Ry
     estimated scf accuracy    <       0.01554559 Ry

     iteration #  3     ecut=    90.00 Ry     beta= 0.30
     Davidson diagonalization with overlap
     ethr =  2.99E-05,  avg # of iterations =  3.7

     negative rho (up, down):  4.640E-05 0.000E+00

     total cpu time spent up to now is      706.4 secs

     total energy              =    -141.36268610 Ry
     estimated scf accuracy    <       0.01546876 Ry

     iteration #  4     ecut=    90.00 Ry     beta= 0.30
     Davidson diagonalization with overlap
     ethr =  2.97E-05,  avg # of iterations =  1.0

     negative rho (up, down):  2.222E-04 0.000E+00

     total cpu time spent up to now is      713.7 secs

     total energy              =    -141.35800084 Ry
     estimated scf accuracy    <       0.01436381 Ry

     iteration #  5     ecut=    90.00 Ry     beta= 0.30
     Davidson diagonalization with overlap
     ethr =  2.76E-05,  avg # of iterations =  2.5

     negative rho (up, down):  1.911E-04 0.000E+00

     total cpu time spent up to now is      722.5 secs

     total energy              =    -141.35921914 Ry
     estimated scf accuracy    <       0.00134590 Ry

     iteration #  6     ecut=    90.00 Ry     beta= 0.30
     Davidson diagonalization with overlap
     ethr =  2.59E-06,  avg # of iterations =  4.4

     negative rho (up, down):  1.361E-05 0.000E+00

     total cpu time spent up to now is      733.6 secs

     total energy              =    -141.35960290 Ry
     estimated scf accuracy    <       0.00028941 Ry

     iteration #  7     ecut=    90.00 Ry     beta= 0.30
     Davidson diagonalization with overlap
     ethr =  5.57E-07,  avg # of iterations =  2.8

     negative rho (up, down):  6.954E-06 0.000E+00

     total cpu time spent up to now is      741.8 secs

     total energy              =    -141.35962165 Ry
     estimated scf accuracy    <       0.00008918 Ry

     iteration #  8     ecut=    90.00 Ry     beta= 0.30
     Davidson diagonalization with overlap
     ethr =  1.72E-07,  avg # of iterations =  2.5

     negative rho (up, down):  1.501E-05 0.000E+00

     total cpu time spent up to now is      750.7 secs

     total energy              =    -141.35962991 Ry
     estimated scf accuracy    <       0.00003026 Ry

     iteration #  9     ecut=    90.00 Ry     beta= 0.30
     Davidson diagonalization with overlap
     ethr =  5.82E-08,  avg # of iterations =  2.0

     negative rho (up, down):  1.492E-04 0.000E+00

     total cpu time spent up to now is      760.2 secs

     total energy              =    -141.35964316 Ry
     estimated scf accuracy    <       0.00001079 Ry

     iteration # 10     ecut=    90.00 Ry     beta= 0.30
     Davidson diagonalization with overlap
     ethr =  2.07E-08,  avg # of iterations =  4.4

     negative rho (up, down):  2.410E-04 0.000E+00

     total cpu time spent up to now is      771.8 secs

     total energy              =    -141.35964918 Ry
     estimated scf accuracy    <       0.00000701 Ry

     iteration # 11     ecut=    90.00 Ry     beta= 0.30
     Davidson diagonalization with overlap
     ethr =  1.35E-08,  avg # of iterations =  1.0

     negative rho (up, down):  3.262E-04 0.000E+00

     total cpu time spent up to now is      780.7 secs

     total energy              =    -141.35964966 Ry
     estimated scf accuracy    <       0.00000558 Ry

     iteration # 12     ecut=    90.00 Ry     beta= 0.30
     Davidson diagonalization with overlap
     ethr =  1.07E-08,  avg # of iterations =  1.4

     negative rho (up, down):  3.113E-04 0.000E+00

     total cpu time spent up to now is      793.5 secs

     total energy              =    -141.35964934 Ry
     estimated scf accuracy    <       0.00000294 Ry

     iteration # 13     ecut=    90.00 Ry     beta= 0.30
     Davidson diagonalization with overlap
     ethr =  5.66E-09,  avg # of iterations =  3.0

     negative rho (up, down):  4.104E-04 0.000E+00

     total cpu time spent up to now is      805.1 secs

     total energy              =    -141.35964944 Ry
     estimated scf accuracy    <       0.00000061 Ry

     iteration # 14     ecut=    90.00 Ry     beta= 0.30
     Davidson diagonalization with overlap
     ethr =  1.17E-09,  avg # of iterations =  3.9

     negative rho (up, down):  4.024E-04 0.000E+00

     total cpu time spent up to now is      817.4 secs

     total energy              =    -141.35964959 Ry
     estimated scf accuracy    <       0.00000005 Ry

     iteration # 15     ecut=    90.00 Ry     beta= 0.30
     Davidson diagonalization with overlap
     ethr =  8.69E-11,  avg # of iterations =  2.0

     negative rho (up, down):  4.129E-04 0.000E+00

     total cpu time spent up to now is      827.3 secs

     total energy              =    -141.35964958 Ry
     estimated scf accuracy    <       0.00000003 Ry

     iteration # 16     ecut=    90.00 Ry     beta= 0.30
     Davidson diagonalization with overlap
     ethr =  5.55E-11,  avg # of iterations =  5.1

     negative rho (up, down):  4.202E-04 0.000E+00

     total cpu time spent up to now is      841.7 secs

     total energy              =    -141.35964957 Ry
     estimated scf accuracy    <       0.00000007 Ry

     iteration # 17     ecut=    90.00 Ry     beta= 0.30
     Davidson diagonalization with overlap
     ethr =  5.55E-11,  avg # of iterations =  3.6

     negative rho (up, down):  4.186E-04 0.000E+00

     total cpu time spent up to now is      853.5 secs

     total energy              =    -141.35964958 Ry
     estimated scf accuracy    <       0.00000001 Ry

     iteration # 18     ecut=    90.00 Ry     beta= 0.30
     Davidson diagonalization with overlap
     ethr =  2.43E-11,  avg # of iterations =  2.8

     negative rho (up, down):  4.204E-04 0.000E+00

     total cpu time spent up to now is      860.3 secs

     End of self-consistent calculation

          k = 0.0000 0.0000 0.0000 (113605 PWs)   bands (ev):

   -21.5420 -20.6968 -19.0227 -17.0752 -16.1070 -15.4987 -15.4285 -15.3883
   -13.7732 -12.8662 -12.1020 -11.8171 -11.5011 -10.4445  -9.7497  -9.6791
    -9.6312  -8.6779  -8.0287  -7.6133  -6.8329  -6.3015  -6.2926  -4.6038
    -4.2643  -2.4510

          k = 0.0252 0.0000 0.0000 (113595 PWs)   bands (ev):

   -21.5383 -20.6933 -19.0195 -17.0753 -16.1952 -15.6454 -15.3349 -15.2498
   -13.8009 -12.8525 -12.0712 -11.8419 -11.4967 -10.4234  -9.7413  -9.6746
    -9.6481  -8.6737  -8.0183  -7.6262  -6.8296  -6.3103  -6.2963  -4.6062
    -4.2929  -3.1933

          k = 0.0503 0.0000 0.0000 (113555 PWs)   bands (ev):

   -21.5271 -20.6826 -19.0099 -17.0764 -16.3837 -15.8415 -15.1296 -15.0782
   -13.8776 -12.8125 -11.9855 -11.9102 -11.4833 -10.3662  -9.7158  -9.6966
    -9.6614  -8.6611  -7.9890  -7.6643  -6.8197  -6.3365  -6.3078  -4.6140
    -4.3746  -3.3595

          k = 0.0755 0.0000 0.0000 (113553 PWs)   bands (ev):

   -21.5086 -20.6647 -18.9941 -17.0822 -16.5974 -16.0442 -14.9161 -14.8847
   -13.9894 -12.7500 -12.0064 -11.8611 -11.4585 -10.2860  -9.7714  -9.6720
    -9.6393  -8.6401  -7.9461  -7.7255  -6.8033  -6.3795  -6.3291  -4.6314
    -4.4959  -3.5608

          k = 0.1006 0.0000 0.0000 (113509 PWs)   bands (ev):

   -21.4825 -20.6398 -18.9721 -17.1074 -16.7990 -16.2496 -14.7665 -14.6254
   -14.1205 -12.6765 -12.1080 -11.7198 -11.4152 -10.1967  -9.8652  -9.6091
    -9.6085  -8.6106  -7.8964  -7.8069  -6.7804  -6.4383  -6.3624  -4.7012
    -4.6033  -3.7754

          k = 0.1258 0.0000 0.0000 (113507 PWs)   bands (ev):

   -21.4491 -20.6077 -18.9439 -17.2016 -16.9318 -16.4556 -14.6304 -14.3822
   -14.2377 -12.6257 -12.1733 -11.5932 -11.3340 -10.1078  -9.9704  -9.5688
    -9.5275  -8.5729  -7.9050  -7.8465  -6.7511  -6.5117  -6.4102  -4.8704
    -4.6402  -3.9954

          k = 0.1509 0.0000 0.0000 (113481 PWs)   bands (ev):

   -21.4083 -20.5687 -18.9100 -17.3839 -16.9747 -16.6609 -14.5073 -14.4323
   -14.0593 -12.6550 -12.1406 -11.5107 -11.1953 -10.0792 -10.0240  -9.5204
    -9.4303  -8.5268  -8.0164  -7.8020  -6.7157  -6.5983  -6.4749  -5.0699
    -4.6683  -4.2170

          k = 0.1761 0.0000 0.0000 (113468 PWs)   bands (ev):

   -21.3601 -20.5227 -18.8704 -17.5958 -16.9861 -16.8638 -14.5710 -14.3969
   -13.7866 -12.7584 -12.0137 -11.4628 -11.0183 -10.1826  -9.9459  -9.4633
    -9.3229  -8.4724  -8.1373  -7.7679  -6.6963  -6.6742  -6.5581  -5.2816
    -4.6999  -4.4383

          k = 0.2012 0.0000 0.0000 (113480 PWs)   bands (ev):

   -21.3046 -20.4698 -18.8258 -17.8122 -17.0632 -16.9916 -14.7056 -14.2987
   -13.5097 -12.8899 -11.8374 -11.4346 -10.8302 -10.2682  -9.8725  -9.3975
    -9.2121  -8.4099  -8.2637  -7.7481  -6.8042  -6.6607  -6.6271  -5.4999
    -4.7370  -4.6578

          k = 0.2264 0.0000 0.0000 (113498 PWs)   bands (ev):

   -21.2417 -20.4102 -18.7768 -18.0266 -17.2577 -16.9994 -14.8288 -14.2138
   -13.2341 -13.0249 -11.6343 -11.4241 -10.6561 -10.3121  -9.8026  -9.3230
    -9.1051  -8.3908  -8.3393  -7.7454  -6.9202  -6.7831  -6.5747  -5.7209
    -4.8744  -4.7805

          k = 0.2516 0.0000 0.0000 (113540 PWs)   bands (ev):

   -21.1716 -20.3440 -18.7247 -18.2367 -17.4456 -17.0135 -14.9363 -14.1457
   -13.1498 -12.9639 -11.4341 -11.4143 -10.5434 -10.2617  -9.7366  -9.2400
    -9.0108  -8.5106  -8.2606  -7.7623  -7.0428  -6.9250  -6.5176  -5.9423
    -5.0870  -4.8308

          k = 0.2767 0.0000 0.0000 (113574 PWs)   bands (ev):

   -21.0942 -20.2715 -18.6717 -18.4411 -17.6242 -17.0370 -15.0246 -14.1022
   -13.2513 -12.7048 -11.4648 -11.1831 -10.4944 -10.1109  -9.6772  -9.1484
    -8.9440  -8.6064  -8.1742  -7.8002  -7.1705  -7.0854  -6.4568  -6.1621
    -5.2943  -4.8878

          k = 0.3019 0.0000 0.0000 (113622 PWs)   bands (ev):

   -21.0096 -20.1931 -18.6390 -18.6223 -17.7888 -17.0721 -15.0910 -14.0947
   -13.3146 -12.4680 -11.5057 -10.9449 -10.4423  -9.9273  -9.6312  -9.0484
    -8.9292  -8.6483  -8.0801  -7.8597  -7.3023  -7.2629  -6.3943  -6.3788
    -5.4942  -4.9517

          k = 0.3270 0.0000 0.0000 (113582 PWs)   bands (ev):

   -20.9180 -20.1097 -18.8293 -18.5859 -17.9298 -17.1201 -15.1337 -14.1308
   -13.3294 -12.2779 -11.5290 -10.7033 -10.3637  -9.7400  -9.6107  -8.9570
    -8.9400  -8.6342  -7.9788  -7.9406  -7.4555  -7.4373  -6.5912  -6.3343
    -5.6820  -5.0220

          k = 0.3522 0.0000 0.0000 (113592 PWs)   bands (ev):

   -20.8193 -20.0227 -19.0102 -18.5811 -18.0284 -17.1810 -15.1523 -14.2053
   -13.2990 -12.1770 -11.4875 -10.4627 -10.2565  -9.6299  -9.5577  -8.9737
    -8.8234  -8.6043  -8.0421  -7.8710  -7.6604  -7.5749  -6.7978  -6.2900
    -5.8448  -5.0982

          k = 0.3773 0.0000 0.0000 (113574 PWs)   bands (ev):

   -20.7138 -19.9356 -19.1784 -18.6288 -18.0640 -17.2538 -15.1476 -14.3041
   -13.2361 -12.1826 -11.3603 -10.2314 -10.1224  -9.6874  -9.3846  -8.9526
    -8.6986  -8.5830  -8.1628  -7.8739  -7.7584  -7.7144  -6.9963  -6.3002
    -5.9435  -5.1795

          k = 0.4025 0.0000 0.0000 (113540 PWs)   bands (ev):

   -20.6017 -19.8581 -19.3240 -18.7250 -18.0405 -17.3366 -15.1212 -14.4146
   -13.1521 -12.2556 -11.1845 -10.0460  -9.9634  -9.7380  -9.2236  -8.8993
    -8.5815  -8.5659  -8.3015  -8.0888  -7.8546  -7.6469  -7.1807  -6.4007
    -5.9428  -5.2651

          k = 0.4277 0.0000 0.0000 (113542 PWs)   bands (ev):

   -20.4832 -19.8190 -19.4184 -18.8467 -17.9807 -17.4270 -15.0756 -14.5285
   -13.0544 -12.3587 -10.9953 -10.0355  -9.7821  -9.6412  -9.0772  -8.8318
    -8.6120  -8.4571  -8.4255  -8.2871  -7.9938  -7.5711  -7.3158  -6.5490
    -5.8851  -5.3541

          k = 0.4528 0.0000 0.0000 (113546 PWs)   bands (ev):

   -20.3590 -19.8628 -19.4172 -18.9771 -17.9019 -17.5223 -15.0131 -14.6407
   -12.9472 -12.4744 -10.8081 -10.1506  -9.5820  -9.4395  -8.9478  -8.7980
    -8.6834  -8.6285  -8.4188  -8.2776  -8.1291  -7.6437  -7.2890  -6.7087
    -5.8070  -5.4454

          k = 0.4780 0.0000 0.0000 (113570 PWs)   bands (ev):

   -20.2300 -19.9704 -19.3401 -19.1070 -17.8126 -17.6200 -14.9361 -14.7477
   -12.8334 -12.5946 -10.6283 -10.2972  -9.3683  -9.2248  -8.9364  -8.8417
    -8.8113  -8.7056  -8.4376  -8.2563  -8.1228  -7.7986  -7.1665  -6.8680
    -5.7205  -5.5378

          k =-0.5031 0.0000 0.0000 (113536 PWs)   bands (ev):

   -20.0986 -20.0986 -19.2305 -19.2305 -17.7176 -17.7176 -14.8469 -14.8469
   -12.7152 -12.7152 -10.4576 -10.4576  -9.1482  -9.1482  -9.0151  -9.0151
    -8.7526  -8.7526  -8.3670  -8.3670  -7.9622  -7.9622  -7.0220  -7.0220
    -5.6300  -5.6300

     highest occupied level (ev):    -2.4510

!    total energy              =    -141.35964958 Ry
     estimated scf accuracy    <          3.2E-09 Ry

     The total energy is the sum of the following terms:
     one-electron contribution =    -975.55751183 Ry
     hartree contribution      =     494.77685636 Ry
     xc contribution           =     -44.71594039 Ry
     ewald contribution        =     384.13694628 Ry

     convergence has been achieved in  18 iterations

     Forces acting on atoms (cartesian axes, Ry/au):

     atom    1 type  1   force =     0.03190817    0.02366256    0.00000000
     atom    2 type  1   force =     0.01040710    0.04353102    0.00000000
     atom    3 type  1   force =    -0.03190817    0.02366256    0.00000000
     atom    4 type  1   force =    -0.00567695    0.01092320    0.00000000
     atom    5 type  1   force =     0.00567695   -0.01092320    0.00000000
     atom    6 type  1   force =    -0.01040710    0.04353102    0.00000000
     atom    7 type  1   force =     0.00567695    0.01092320    0.00000000
     atom    8 type  1   force =    -0.01040710   -0.04353102    0.00000000
     atom    9 type  1   force =    -0.03190817   -0.02366256    0.00000000
     atom   10 type  1   force =    -0.00567695   -0.01092320    0.00000000
     atom   11 type  1   force =     0.01040710   -0.04353102    0.00000000
     atom   12 type  1   force =     0.03190817   -0.02366256    0.00000000
     atom   13 type  2   force =     0.00765648   -0.00308599    0.00000000
     atom   14 type  2   force =    -0.00765648   -0.00308599    0.00000000
     atom   15 type  2   force =    -0.00765648    0.00308599    0.00000000
     atom   16 type  2   force =     0.00765648    0.00308599    0.00000000

     Total force =     0.123304     Total SCF correction =     0.000137


     Computing stress (Cartesian axis) and pressure

          total   stress  (Ry/bohr**3)                   (kbar)     P=       -3.55
   0.00008477   0.00000000   0.00000000           12.47        0.00        0.00
   0.00000000  -0.00015719   0.00000000            0.00      -23.12        0.00
   0.00000000   0.00000000   0.00000011            0.00        0.00        0.02

     Energy error            =      9.3E-02
     Gradient error          =      4.4E-02
     Cell gradient error     =      1.6E-04


     number of scf cycles    =   4
     number of bfgs steps    =   3

     enthalpy old            =    -141.2670995689 Ry
     enthalpy new            =    -141.3596495807 Ry

     CASE: enthalpy_new < enthalpy_old

     new trust radius        =       0.3154225769 bohr
     new conv_thr            =       0.0000000044 Ry

     new unit-cell volume =   7236.87791 a.u.^3 (  1072.39466 Ang^3 )
     density =      0.22942 g/cm^3

CELL_PARAMETERS (alat=  8.05510878)
   0.995432855   0.000000000   0.000000000
   0.000000000   3.952742119   0.000000000
   0.000000000   0.000000000   3.519059127

ATOMIC_POSITIONS (crystal)
C             0.6605517123        0.3187908553        0.5000000000    1   1   0
C             0.8317434390        0.3893434243        0.5000000000    1   1   0
C             0.3394482877        0.3187908553        0.5000000000    1   1   0
C             0.6675317624        0.4623987993        0.5000000000    1   1   0
C             0.8324682376        0.5376012007        0.5000000000    1   1   0
C             0.1682565610        0.3893434243        0.5000000000    1   1   0
C             0.3324682376        0.4623987993        0.5000000000    1   1   0
[...]

     total energy              =    -141.43764748 Ry
     estimated scf accuracy    <       0.24064667 Ry

     iteration #  5     ecut=    90.00 Ry     beta= 0.30
     Davidson diagonalization with overlap
     ethr =  4.63E-04,  avg # of iterations =  2.2

     negative rho (up, down):  5.092E-03 0.000E+00

     total cpu time spent up to now is     2536.0 secs

     total energy              =    -141.42395267 Ry
     estimated scf accuracy    <       0.11606876 Ry

     iteration #  6     ecut=    90.00 Ry     beta= 0.30
     Davidson diagonalization with overlap
     ethr =  2.23E-04,  avg # of iterations =  1.5

     negative rho (up, down):  4.014E-03 0.000E+00

     total cpu time spent up to now is     2542.2 secs

     total energy              =    -141.40518356 Ry
     estimated scf accuracy    <       0.07351843 Ry

     iteration #  7     ecut=    90.00 Ry     beta= 0.30
     Davidson diagonalization with overlap
     ethr =  1.41E-04,  avg # of iterations =  2.1

     negative rho (up, down):  4.970E-02 0.000E+00

     total cpu time spent up to now is     2549.3 secs

     total energy              =    -141.40651788 Ry
     estimated scf accuracy    <       0.03904131 Ry

     iteration #  8     ecut=    90.00 Ry     beta= 0.30
     Davidson diagonalization with overlap
     ethr =  7.51E-05,  avg # of iterations =  1.6

     negative rho (up, down):  7.734E-02 0.000E+00

     total cpu time spent up to now is     2556.4 secs

     total energy              =    -141.39316800 Ry
     estimated scf accuracy    <       0.03762220 Ry

     iteration #  9     ecut=    90.00 Ry     beta= 0.30
     Davidson diagonalization with overlap
     ethr =  7.24E-05,  avg # of iterations =  2.4

     negative rho (up, down):  1.348E-01 0.000E+00

     total cpu time spent up to now is     2563.7 secs

     total energy              =    -141.39523176 Ry
     estimated scf accuracy    <       0.00952199 Ry

     iteration # 10     ecut=    90.00 Ry     beta= 0.30
     Davidson diagonalization with overlap
     ethr =  1.83E-05,  avg # of iterations =  3.8

     negative rho (up, down):  3.139E-02 0.000E+00

     total cpu time spent up to now is     2571.9 secs

     total energy              =    -141.39319456 Ry
     estimated scf accuracy    <       0.00504914 Ry

     iteration # 11     ecut=    90.00 Ry     beta= 0.30
     Davidson diagonalization with overlap
     ethr =  9.71E-06,  avg # of iterations =  2.8

     negative rho (up, down):  2.711E-02 0.000E+00

     total cpu time spent up to now is     2580.1 secs

     total energy              =    -141.39395814 Ry
     estimated scf accuracy    <       0.00070872 Ry

     iteration # 12     ecut=    90.00 Ry     beta= 0.30
     Davidson diagonalization with overlap
     ethr =  1.36E-06,  avg # of iterations =  2.3

     negative rho (up, down):  1.137E-02 0.000E+00

     total cpu time spent up to now is     2588.8 secs

     total energy              =    -141.39401200 Ry
     estimated scf accuracy    <       0.00054273 Ry

     iteration # 13     ecut=    90.00 Ry     beta= 0.30
     Davidson diagonalization with overlap
     ethr =  1.04E-06,  avg # of iterations =  3.4

     negative rho (up, down):  1.011E-02 0.000E+00

     total cpu time spent up to now is     2597.8 secs

     total energy              =    -141.39407512 Ry
     estimated scf accuracy    <       0.00007489 Ry

     iteration # 14     ecut=    90.00 Ry     beta= 0.30
     Davidson diagonalization with overlap
     ethr =  1.44E-07,  avg # of iterations =  2.0

     negative rho (up, down):  3.785E-03 0.000E+00

     total cpu time spent up to now is     2605.7 secs

     total energy              =    -141.39404811 Ry
     estimated scf accuracy    <       0.00004687 Ry

     iteration # 15     ecut=    90.00 Ry     beta= 0.30
     Davidson diagonalization with overlap
     ethr =  9.01E-08,  avg # of iterations =  4.5

     negative rho (up, down):  2.546E-03 0.000E+00

     total cpu time spent up to now is     2617.7 secs

     total energy              =    -141.39404833 Ry
     estimated scf accuracy    <       0.00006270 Ry

     iteration # 16     ecut=    90.00 Ry     beta= 0.30
     Davidson diagonalization with overlap
     ethr =  9.01E-08,  avg # of iterations =  2.5

     negative rho (up, down):  2.088E-03 0.000E+00

     total cpu time spent up to now is     2625.7 secs

     total energy              =    -141.39405100 Ry
     estimated scf accuracy    <       0.00001055 Ry

     iteration # 17     ecut=    90.00 Ry     beta= 0.30
     Davidson diagonalization with overlap
     ethr =  2.03E-08,  avg # of iterations =  3.5

     negative rho (up, down):  1.103E-03 0.000E+00

     total cpu time spent up to now is     2634.8 secs

     total energy              =    -141.39404564 Ry
     estimated scf accuracy    <       0.00000444 Ry

     iteration # 18     ecut=    90.00 Ry     beta= 0.30
     Davidson diagonalization with overlap
     ethr =  8.54E-09,  avg # of iterations =  4.1

     negative rho (up, down):  6.764E-04 0.000E+00

     total cpu time spent up to now is     2645.9 secs

     total energy              =    -141.39404505 Ry
     estimated scf accuracy    <       0.00000167 Ry

     iteration # 19     ecut=    90.00 Ry     beta= 0.30
     Davidson diagonalization with overlap
     ethr =  3.21E-09,  avg # of iterations =  1.0

     negative rho (up, down):  5.861E-04 0.000E+00

     total cpu time spent up to now is     2655.1 secs

     total energy              =    -141.39404471 Ry
     estimated scf accuracy    <       0.00000132 Ry

     iteration # 20     ecut=    90.00 Ry     beta= 0.30
     Davidson diagonalization with overlap
     ethr =  2.54E-09,  avg # of iterations =  3.5

     negative rho (up, down):  6.112E-04 0.000E+00

     total cpu time spent up to now is     2665.1 secs

     total energy              =    -141.39404516 Ry
     estimated scf accuracy    <       0.00000014 Ry

     iteration # 21     ecut=    90.00 Ry     beta= 0.30
     Davidson diagonalization with overlap
     ethr =  2.70E-10,  avg # of iterations =  4.5

     negative rho (up, down):  5.795E-04 0.000E+00

     total cpu time spent up to now is     2675.7 secs

     total energy              =    -141.39404533 Ry
     estimated scf accuracy    <       0.00000026 Ry

     iteration # 22     ecut=    90.00 Ry     beta= 0.30
     Davidson diagonalization with overlap
     ethr =  2.70E-10,  avg # of iterations =  4.2

     negative rho (up, down):  5.774E-04 0.000E+00

     total cpu time spent up to now is     2687.6 secs

     total energy              =    -141.39404536 Ry
     estimated scf accuracy    <       0.00000002 Ry

     iteration # 23     ecut=    90.00 Ry     beta= 0.30
     Davidson diagonalization with overlap
     ethr =  4.32E-11,  avg # of iterations =  2.1

     negative rho (up, down):  5.732E-04 0.000E+00

     total cpu time spent up to now is     2695.9 secs

     total energy              =    -141.39404534 Ry
     estimated scf accuracy    <          7.7E-09 Ry

     iteration # 24     ecut=    90.00 Ry     beta= 0.30
     Davidson diagonalization with overlap
     ethr =  1.48E-11,  avg # of iterations =  4.0

     negative rho (up, down):  5.655E-04 0.000E+00

     total cpu time spent up to now is     2707.6 secs

     total energy              =    -141.39404534 Ry
     estimated scf accuracy    <          3.5E-09 Ry

     iteration # 25     ecut=    90.00 Ry     beta= 0.30
     Davidson diagonalization with overlap
     ethr =  6.65E-12,  avg # of iterations =  1.0

     negative rho (up, down):  5.491E-04 0.000E+00

     total cpu time spent up to now is     2714.6 secs

     total energy              =    -141.39404533 Ry
     estimated scf accuracy    <          2.6E-09 Ry

     iteration # 26     ecut=    90.00 Ry     beta= 0.30
     Davidson diagonalization with overlap
     ethr =  4.99E-12,  avg # of iterations =  3.8

     negative rho (up, down):  5.501E-04 0.000E+00

     total cpu time spent up to now is     2724.4 secs

     total energy              =    -141.39404533 Ry
     estimated scf accuracy    <          2.9E-10 Ry

     iteration # 27     ecut=    90.00 Ry     beta= 0.30
     Davidson diagonalization with overlap
     ethr =  5.60E-13,  avg # of iterations =  2.6

     negative rho (up, down):  5.495E-04 0.000E+00

     total cpu time spent up to now is     2734.4 secs

     total energy              =    -141.39404534 Ry
     estimated scf accuracy    <          1.2E-10 Ry

     iteration # 28     ecut=    90.00 Ry     beta= 0.30
     Davidson diagonalization with overlap
     ethr =  2.33E-13,  avg # of iterations =  2.6

     negative rho (up, down):  5.492E-04 0.000E+00

     total cpu time spent up to now is     2740.8 secs

     End of self-consistent calculation

          k = 0.0000 0.0000 0.0000 (105735 PWs)   bands (ev):

   -21.8082 -20.7208 -18.9420 -16.8843 -16.7567 -15.7777 -15.5949 -15.3045
   -14.0788 -12.9533 -12.2384 -12.0227 -11.2273 -10.2997  -9.8912  -9.7285
    -9.4884  -8.6705  -8.0311  -7.6071  -6.7242  -6.4639  -6.1943  -4.7312
    -4.4236  -3.3858

          k = 0.0248 0.0000 0.0000 (105751 PWs)   bands (ev):

   -21.8046 -20.7174 -18.9389 -16.8982 -16.7957 -15.8541 -15.5362 -15.2333
   -14.1019 -12.9433 -12.2119 -12.0406 -11.2244 -10.2814  -9.8869  -9.7417
    -9.4841  -8.6664  -8.0245  -7.6183  -6.7210  -6.4706  -6.2024  -4.7565
    -4.4259  -3.4341

          k = 0.0495 0.0000 0.0000 (105771 PWs)   bands (ev):

   -21.7938 -20.7070 -18.9296 -16.9910 -16.8376 -16.0163 -15.3839 -15.0871
   -14.1673 -12.9141 -12.1366 -12.0908 -11.2156 -10.2291  -9.8740  -9.7801
    -9.4713  -8.6541  -8.0060  -7.6515  -6.7113  -6.4909  -6.2263  -4.8295
    -4.4328  -3.5598

          k = 0.0743 0.0000 0.0000 (105755 PWs)   bands (ev):

   -21.7758 -20.6897 -18.9143 -17.1641 -16.8428 -16.2053 -15.1769 -14.9254
   -14.2648 -12.8685 -12.1631 -12.0231 -11.2011 -10.1504  -9.8526  -9.8396
    -9.4498  -8.6336  -7.9791  -7.7052  -6.6952  -6.5260  -6.2656  -4.9436
    -4.4449  -3.7304

          k = 0.0990 0.0000 0.0000 (105765 PWs)   bands (ev):

   -21.7507 -20.6654 -18.8929 -17.3654 -16.8396 -16.4033 -14.9397 -14.7667
   -14.3832 -12.8147 -12.2404 -11.8834 -11.1807 -10.0538  -9.9149  -9.8226
    -9.4197  -8.6050  -7.9484  -7.7773  -6.6728  -6.5769  -6.3195  -5.0901
    -4.4626  -3.9241

          k = 0.1238 0.0000 0.0000 (105753 PWs)   bands (ev):

   -21.7184 -20.6343 -18.8656 -17.5770 -16.8344 -16.6041 -14.6853 -14.6179
   -14.5122 -12.7745 -12.2931 -11.7296 -11.1538  -9.9992  -9.9475  -9.7840
    -9.3809  -8.5683  -7.9190  -7.8652  -6.6452  -6.6442  -6.3870  -5.2607
    -4.4861  -4.1294

          k = 0.1485 0.0000 0.0000 (105743 PWs)   bands (ev):

   -21.6789 -20.5964 -18.8327 -17.7917 -16.8297 -16.8047 -14.6473 -14.4827
   -14.4170 -12.7847 -12.2786 -11.5750 -11.1175 -10.0850  -9.8381  -9.7370
    -9.3338  -8.5234  -7.9659  -7.8955  -6.7318  -6.6095  -6.4669  -5.4485
    -4.5159  -4.3401

          k = 0.1733 0.0000 0.0000 (105681 PWs)   bands (ev):

   -21.6323 -20.5518 -18.7946 -18.0059 -17.0030 -16.8273 -14.7773 -14.3632
   -14.1433 -12.8529 -12.1848 -11.4392 -11.0628 -10.1634  -9.7308  -9.6814
    -9.2795  -8.4705  -8.0764  -7.8819  -6.8374  -6.5689  -6.5578  -5.6478
    -4.5529  -4.5523

          k = 0.1980 0.0000 0.0000 (105691 PWs)   bands (ev):

   -21.5786 -20.5004 -18.7517 -18.2175 -17.1975 -16.8294 -14.8999 -14.2617
   -13.8639 -12.9491 -12.0378 -11.3499 -10.9735 -10.2234  -9.6289  -9.6174
    -9.2201  -8.4097  -8.1930  -7.8816  -6.9620  -6.6585  -6.5227  -5.8541
    -4.7653  -4.5955

          k = 0.2228 0.0000 0.0000 (105673 PWs)   bands (ev):

   -21.5178 -20.4425 -18.7050 -18.4252 -17.3865 -16.8387 -15.0100 -14.1815
   -13.5811 -13.0479 -11.8588 -11.3211 -10.8491 -10.2520  -9.5450  -9.5348
    -9.1597  -8.3409  -8.3113  -7.8971  -7.1050  -6.7674  -6.4713  -6.0642
    -4.9758  -4.6457

          k = 0.2475 0.0000 0.0000 (105681 PWs)   bands (ev):

   -21.4499 -20.3782 -18.6563 -18.6280 -17.5677 -16.8578 -15.1034 -14.1281
   -13.2968 -13.1325 -11.6586 -11.3417 -10.7137 -10.2365  -9.4642  -9.4506
    -9.1043  -8.4248  -8.2643  -7.9303  -7.2654  -6.8832  -6.4152  -6.2756
    -5.1829  -4.7030

          k = 0.2723 0.0000 0.0000 (105691 PWs)   bands (ev):

   -21.3750 -20.3079 -18.8252 -18.6088 -17.7374 -16.8891 -15.1764 -14.1090
   -13.1888 -13.0133 -11.4436 -11.3969 -10.5886 -10.1695  -9.3808  -9.3751
    -9.0619  -8.5227  -8.1801  -7.9825  -7.4413  -7.0045  -6.4862  -6.3555
    -5.3850  -4.7671

          k = 0.2971 0.0000 0.0000 (105686 PWs)   bands (ev):

   -21.2930 -20.2320 -19.0158 -18.5698 -17.8883 -16.9343 -15.2266 -14.1292
   -13.2075 -12.7342 -11.4738 -11.2184 -10.4791 -10.0571  -9.3380  -9.2778
    -9.0363  -8.5906  -8.0885  -8.0543  -7.6304  -7.1302  -6.6945  -6.2947
    -5.5794  -4.8377

          k = 0.3218 0.0000 0.0000 (105680 PWs)   bands (ev):

   -21.2042 -20.1517 -19.1985 -18.5546 -18.0048 -16.9939 -15.2529 -14.1859
   -13.1883 -12.4674 -11.5568 -10.9867 -10.3764  -9.9176  -9.3459  -9.1724
    -9.0152  -8.6197  -8.1455  -7.9900  -7.8294  -7.2589  -6.8989  -6.2392
    -5.7591  -4.9143

          k = 0.3466 0.0000 0.0000 (105706 PWs)   bands (ev):

   -21.1084 -20.0696 -19.3706 -18.5866 -18.0634 -17.0669 -15.2557 -14.2696
   -13.1383 -12.2358 -11.6180 -10.7517 -10.2711  -9.7681  -9.4169  -9.0589
    -8.9820  -8.6180  -8.2556  -8.0331  -7.8855  -7.3896  -7.0976  -6.2143
    -5.8990  -4.9961

          k = 0.3713 0.0000 0.0000 (105672 PWs)   bands (ev):

   -21.0059 -19.9936 -19.5240 -18.6725 -18.0574 -17.1514 -15.2368 -14.3695
   -13.0665 -12.1058 -11.5878 -10.5170 -10.1579  -9.6198  -9.5336  -8.9458
    -8.9375  -8.6020  -8.3831  -8.2310  -7.7783  -7.5209  -7.2868  -6.2810
    -5.9381  -5.0825

          k = 0.3961 0.0000 0.0000 (105610 PWs)   bands (ev):

   -20.8966 -19.9533 -19.6292 -18.7915 -18.0077 -17.2446 -15.1985 -14.4775
   -12.9796 -12.1216 -11.4204 -10.2887 -10.0343  -9.6742  -9.4806  -8.9289
    -8.8082  -8.6041  -8.5253  -8.3852  -7.6880  -7.6518  -7.4465  -6.4235
    -5.8920  -5.1724

          k = 0.4208 0.0000 0.0000 (105648 PWs)   bands (ev):

   -20.7808 -20.0060 -19.6287 -18.9238 -17.9343 -17.3439 -15.1435 -14.5880
   -12.8822 -12.2089 -11.1903 -10.0922  -9.8990  -9.8070  -9.3586  -8.9604
    -8.6912  -8.6767  -8.6714  -8.4066  -7.7810  -7.7320  -7.4588  -6.5853
    -5.8174  -5.2650

          k = 0.4456 0.0000 0.0000 (105644 PWs)   bands (ev):

   -20.6588 -20.1253 -19.5493 -19.0590 -17.8478 -17.4466 -15.0742 -14.6973
   -12.7770 -12.3184 -10.9475 -10.0982  -9.7612  -9.7515  -9.2702  -9.0700
    -8.8218  -8.7862  -8.5271  -8.3426  -7.9072  -7.8875  -7.3465  -6.7487
    -5.7323  -5.3593

          k = 0.4703 0.0000 0.0000 (105636 PWs)   bands (ev):

   -20.5308 -20.2610 -19.4414 -19.1922 -17.7531 -17.5504 -14.9930 -14.8026
   -12.6661 -12.4344 -10.7091 -10.2734  -9.5930  -9.5766  -9.2635  -9.2320
    -8.9111  -8.8513  -8.3757  -8.2506  -8.0540  -8.0289  -7.2099  -6.9086
    -5.6421  -5.4543

          k =-0.4951 0.0000 0.0000 (105568 PWs)   bands (ev):

   -20.3977 -20.3977 -19.3206 -19.3206 -17.6532 -17.6532 -14.9018 -14.9018
   -12.5512 -12.5512 -10.4824 -10.4824  -9.4489  -9.4489  -9.3553  -9.3553
    -8.9024  -8.9024  -8.2177  -8.2177  -8.1443  -8.1443  -7.0629  -7.0629
    -5.5489  -5.5489

     highest occupied level (ev):    -3.3858

!    total energy              =    -141.39404534 Ry
     estimated scf accuracy    <          3.2E-11 Ry

     The total energy is the sum of the following terms:
     one-electron contribution =    -979.66069918 Ry
     hartree contribution      =     496.77800162 Ry
     xc contribution           =     -44.85324428 Ry
     ewald contribution        =     386.34189649 Ry

     convergence has been achieved in  28 iterations

     Forces acting on atoms (cartesian axes, Ry/au):

     atom    1 type  1   force =     0.00031236   -0.00003213    0.00000000
     atom    2 type  1   force =     0.00019557    0.00055987    0.00000000
     atom    3 type  1   force =    -0.00031236   -0.00003213    0.00000000
     atom    4 type  1   force =    -0.00077184   -0.00019915    0.00000000
     atom    5 type  1   force =     0.00077184    0.00019915    0.00000000
     atom    6 type  1   force =    -0.00019557    0.00055987    0.00000000
     atom    7 type  1   force =     0.00077184   -0.00019915    0.00000000
     atom    8 type  1   force =    -0.00019557   -0.00055987    0.00000000
     atom    9 type  1   force =    -0.00031236    0.00003213    0.00000000
     atom   10 type  1   force =    -0.00077184    0.00019915    0.00000000
     atom   11 type  1   force =     0.00019557   -0.00055987    0.00000000
     atom   12 type  1   force =     0.00031236    0.00003213    0.00000000
     atom   13 type  2   force =    -0.00001057   -0.00066994    0.00000000
     atom   14 type  2   force =     0.00001057   -0.00066994    0.00000000
     atom   15 type  2   force =     0.00001057    0.00066994    0.00000000
     atom   16 type  2   force =    -0.00001057    0.00066994    0.00000000

     Total force =     0.002478     Total SCF correction =     0.000011


     Computing stress (Cartesian axis) and pressure

          total   stress  (Ry/bohr**3)                   (kbar)     P=        0.11
   0.00000113   0.00000000   0.00000000            0.17        0.00        0.00
   0.00000000   0.00000109   0.00000000            0.00        0.16        0.00
   0.00000000   0.00000000   0.00000007            0.00        0.00        0.01


     Writing output data file ./6AGNR.save/
 
     init_run     :      9.58s CPU     10.24s WALL (       2 calls)
     electrons    :   2503.38s CPU   2646.59s WALL (      14 calls)
     update_pot   :     10.18s CPU     10.24s WALL (      12 calls)
     forces       :     16.45s CPU     16.84s WALL (      14 calls)
     stress       :     60.96s CPU     61.21s WALL (      14 calls)

     Called by init_run:
     wfcinit      :      7.52s CPU      8.11s WALL (       2 calls)
     potinit      :      0.69s CPU      0.71s WALL (       2 calls)
     hinit0       :      0.51s CPU      0.52s WALL (       2 calls)

     Called by electrons:
     c_bands      :   1596.93s CPU   1684.71s WALL (     247 calls)
     sum_band     :    218.96s CPU    235.11s WALL (     247 calls)
     v_of_rho     :     10.66s CPU     11.19s WALL (     259 calls)
     newd         :      7.17s CPU      7.29s WALL (     259 calls)
     mix_rho      :    669.87s CPU    708.04s WALL (     247 calls)

     Called by c_bands:
     init_us_2    :     42.02s CPU     42.30s WALL (   11004 calls)
     cegterg      :   1474.66s CPU   1561.49s WALL (    5187 calls)

     Called by *egterg:
     cdiaghg      :    108.77s CPU    109.33s WALL (   21129 calls)
     h_psi        :    943.74s CPU   1028.64s WALL (   21465 calls)
     s_psi        :     83.14s CPU     83.48s WALL (   21465 calls)
     g_psi        :      7.89s CPU      7.97s WALL (   16236 calls)

     Called by h_psi:
     h_psi:calbec :     82.04s CPU     82.86s WALL (   21465 calls)
     vloc_psi     :    766.54s CPU    850.19s WALL (   21465 calls)
     add_vuspsi   :     84.37s CPU     84.75s WALL (   21465 calls)

     General routines
     calbec       :    114.83s CPU    115.80s WALL (   28122 calls)
     fft          :      7.93s CPU      8.53s WALL (    2975 calls)
     ffts         :    335.73s CPU    372.01s WALL (  184228 calls)
     fftw         :    841.89s CPU    936.00s WALL (  857254 calls)
 
     Parallel routines
     fft_scatt_xy :    135.88s CPU    145.30s WALL ( 1044457 calls)
     fft_scatt_yz :    696.37s CPU    798.46s WALL ( 1044457 calls)
 
     PWSCF        :  43m21.98s CPU  45m47.97s WALL

 
   This run was terminated on:  10:50:56   8Mar2022            

=------------------------------------------------------------------------------=
   JOB DONE.
=------------------------------------------------------------------------------=
