
     Program PWSCF v.6.7MaX starts on  7Dec2021 at 13:58:36 

     This program is part of the open-source Quantum ESPRESSO suite
     for quantum simulation of materials; please cite
         "P. Giannozzi et al., J. Phys.:Condens. Matter 21 395502 (2009);
         "P. Giannozzi et al., J. Phys.:Condens. Matter 29 465901 (2017);
          URL http://www.quantum-espresso.org", 
     in publications or presentations arising from this work. More details at
     http://www.quantum-espresso.org/quote

     Parallel version (MPI), running on    10 processors

     MPI processes distributed on     1 nodes
     R & G space division:  proc/nbgrp/npool/nimage =      10
     Waiting for input...
     Reading input from standard input
Warning: card  &CELL     ! THIS CARD IS MANDATORY FOR VC-RELAX ignored
Warning: card      	CELL_DYNAMICS = 'BFGS', ignored
Warning: card         PRESS = 0.0,  ! TARGET PRESSURE [KBAR] IN A VARIABLE-CELL MD OR RELAXATION RUN. DEFAUL: 0.0 IN CELL RELAX ignored
Warning: card     	PRESS_CONV_THR = 0.5,  ! CONVERGENCE THRESHOLD ON THE PRESSURE FOR VARIABLE CELL. DEFAUL: 0.5 IF VC-RELAX ignored
Warning: card        	!CELL_DOFREE = '2DXY', ignored
Warning: card / ignored

     Current dimensions of program PWSCF are:
     Max number of different atomic species (ntypx) = 10
     Max number of k-points (npk) =  40000
     Max angular momentum in pseudopotentials (lmaxx) =  3
     file B.pbe-n-rrkjus_psl.1.0.0.UPF: wavefunction(s)  2S renormalized
     file N.pbe-rrkjus.UPF: wavefunction(s)  2S renormalized

     Subspace diagonalization in iterative solution of the eigenvalue problem:
     one sub-group per band group will be used
     scalapack distributed-memory algorithm (size of sub-group:  3*  3 procs)

 
     Parallelization info
     --------------------
     sticks:   dense  smooth     PW     G-vecs:    dense   smooth      PW
     Min         477     477    136                68351    68351   10516
     Max         478     478    137                68360    68360   10523
     Sum        4771    4771   1369               683529   683529  105203
 


     bravais-lattice index     =            8
     lattice parameter (alat)  =       4.9525  a.u.
     unit-cell volume          =    7074.2618 (a.u.)^3
     number of atoms/cell      =            2
     number of atomic types    =            2
     number of electrons       =         8.00
     number of Kohn-Sham states=            4
     kinetic-energy cutoff     =      80.0000  Ry
     charge density cutoff     =     320.0000  Ry
     scf convergence threshold =      1.0E-08
     mixing beta               =       0.5000
     number of iterations used =            8  local-TF  mixing
     energy convergence thresh.=      1.0E-04
     force convergence thresh. =      1.0E-04
     Exchange-correlation=  SLA  PW   PBE  PBE
                           (   1   4   3   4   0   0   0)
     nstep                     =           50


     celldm(1)=   4.952488  celldm(2)=   7.631422  celldm(3)=   7.631422
     celldm(4)=   0.000000  celldm(5)=   0.000000  celldm(6)=   0.000000

     crystal axes: (cart. coord. in units of alat)
               a(1) = (   1.000000   0.000000   0.000000 )  
               a(2) = (   0.000000   7.631422   0.000000 )  
               a(3) = (   0.000000   0.000000   7.631422 )  

     reciprocal axes: (cart. coord. in units 2 pi/alat)
               b(1) = (  1.000000  0.000000  0.000000 )  
               b(2) = (  0.000000  0.131037  0.000000 )  
               b(3) = (  0.000000  0.000000  0.131037 )  


     PseudoPot. # 1 for B  read from file:
     ../Pseudo/B.pbe-n-rrkjus_psl.1.0.0.UPF
     MD5 check sum: 63df43e07c319b5f28dc02596645f850
     Pseudo is Ultrasoft + core correction, Zval =  3.0
     Generated using "atomic" code by A. Dal Corso  v.5.1.2
     Using radial grid of 1059 points,  4 beta functions with: 
                l(1) =   0
                l(2) =   0
                l(3) =   1
                l(4) =   1
     Q(r) pseudized with 0 coefficients 


     PseudoPot. # 2 for N  read from file:
     ../Pseudo/N.pbe-rrkjus.UPF
     MD5 check sum: 0c3fbe5807a93f9ba59d5a7019aa238b
     Pseudo is Ultrasoft, Zval =  5.0
     Generated by new atomic code, or converted to UPF format
     Using radial grid of 1257 points,  4 beta functions with: 
                l(1) =   0
                l(2) =   0
                l(3) =   1
                l(4) =   1
     Q(r) pseudized with 0 coefficients 


     atomic species   valence    mass     pseudopotential
        B              3.00    10.81100     B ( 1.00)
        N              5.00    14.00670     N ( 1.00)

      8 Sym. Ops. (no inversion) found



   Cartesian axes

     site n.     atom                  positions (alat units)
         1           B   tau(   1) = (  -0.1411726   0.0000000   0.0000000  )
         2           N   tau(   2) = (   0.3588364   0.0000000   0.0000000  )

     number of k points=     7
                       cart. coord. in units 2pi/alat
        k(    1) = (   0.0000000   0.0000000   0.0000000), wk =   0.1666667
        k(    2) = (   0.0833333   0.0000000   0.0000000), wk =   0.3333333
        k(    3) = (   0.1666667   0.0000000   0.0000000), wk =   0.3333333
        k(    4) = (   0.2500000   0.0000000   0.0000000), wk =   0.3333333
        k(    5) = (   0.3333333   0.0000000   0.0000000), wk =   0.3333333
        k(    6) = (   0.4166667   0.0000000   0.0000000), wk =   0.3333333
        k(    7) = (  -0.5000000   0.0000000   0.0000000), wk =   0.1666667

     Dense  grid:   683529 G-vectors     FFT dimensions: (  30, 216, 216)

     Estimated max dynamical RAM per process >      99.53 MB

     Estimated total dynamical RAM >     995.26 MB

     Initial potential from superposition of free atoms

     starting charge    7.99971, renormalised to    8.00000

     negative rho (up, down):  3.813E-04 0.000E+00
     Starting wfcs are    8 randomized atomic wfcs

     total cpu time spent up to now is        2.1 secs

     Self-consistent Calculation

     iteration #  1     ecut=    80.00 Ry     beta= 0.50
     Davidson diagonalization with overlap
     ethr =  1.00E-02,  avg # of iterations =  2.0

     negative rho (up, down):  1.057E-06 0.000E+00

     total cpu time spent up to now is       15.5 secs

     total energy              =     -26.23894848 Ry
     estimated scf accuracy    <       0.66367408 Ry

     iteration #  2     ecut=    80.00 Ry     beta= 0.50
     Davidson diagonalization with overlap
     ethr =  8.30E-03,  avg # of iterations =  1.6

     negative rho (up, down):  1.116E-06 0.000E+00

     total cpu time spent up to now is       18.4 secs

     total energy              =     -26.22137707 Ry
     estimated scf accuracy    <       0.16837013 Ry

     iteration #  3     ecut=    80.00 Ry     beta= 0.50
     Davidson diagonalization with overlap
     ethr =  2.10E-03,  avg # of iterations =  2.1

     negative rho (up, down):  5.436E-07 0.000E+00

     total cpu time spent up to now is       21.1 secs

     total energy              =     -26.24324245 Ry
     estimated scf accuracy    <       0.02959630 Ry

     iteration #  4     ecut=    80.00 Ry     beta= 0.50
     Davidson diagonalization with overlap
     ethr =  3.70E-04,  avg # of iterations =  2.7

     negative rho (up, down):  1.838E-07 0.000E+00

     total cpu time spent up to now is       24.2 secs

     total energy              =     -26.24264965 Ry
     estimated scf accuracy    <       0.01332853 Ry

     iteration #  5     ecut=    80.00 Ry     beta= 0.50
     Davidson diagonalization with overlap
     ethr =  1.67E-04,  avg # of iterations =  2.4

     negative rho (up, down):  2.969E-08 0.000E+00

     total cpu time spent up to now is       26.4 secs

     total energy              =     -26.24374587 Ry
     estimated scf accuracy    <       0.00690480 Ry

     iteration #  6     ecut=    80.00 Ry     beta= 0.50
     Davidson diagonalization with overlap
     ethr =  8.63E-05,  avg # of iterations =  1.0

     negative rho (up, down):  2.998E-02 0.000E+00

     total cpu time spent up to now is       29.8 secs

     total energy              =     -26.24265833 Ry
     estimated scf accuracy    <       0.00380328 Ry

     iteration #  7     ecut=    80.00 Ry     beta= 0.50
     Davidson diagonalization with overlap
     ethr =  4.75E-05,  avg # of iterations =  2.1

     negative rho (up, down):  1.672E-02 0.000E+00

     total cpu time spent up to now is       34.9 secs

     total energy              =     -26.24278124 Ry
     estimated scf accuracy    <       0.00224664 Ry

     iteration #  8     ecut=    80.00 Ry     beta= 0.50
     Davidson diagonalization with overlap
     ethr =  2.81E-05,  avg # of iterations =  2.0

     negative rho (up, down):  2.313E-02 0.000E+00

     total cpu time spent up to now is       41.5 secs

     total energy              =     -26.24325394 Ry
     estimated scf accuracy    <       0.00096251 Ry

     iteration #  9     ecut=    80.00 Ry     beta= 0.50
     Davidson diagonalization with overlap
     ethr =  1.20E-05,  avg # of iterations =  3.1

     negative rho (up, down):  1.583E-02 0.000E+00

     total cpu time spent up to now is       48.0 secs

     total energy              =     -26.24232850 Ry
     estimated scf accuracy    <       0.00184063 Ry

     iteration # 10     ecut=    80.00 Ry     beta= 0.50
     Davidson diagonalization with overlap
     ethr =  1.20E-05,  avg # of iterations =  4.7

     negative rho (up, down):  7.495E-03 0.000E+00

     total cpu time spent up to now is       54.5 secs

     total energy              =     -26.24253231 Ry
     estimated scf accuracy    <       0.00111079 Ry

     iteration # 11     ecut=    80.00 Ry     beta= 0.50
     Davidson diagonalization with overlap
     ethr =  1.20E-05,  avg # of iterations =  2.4

     negative rho (up, down):  3.526E-03 0.000E+00

     total cpu time spent up to now is       66.7 secs

     total energy              =     -26.24278787 Ry
     estimated scf accuracy    <       0.00008062 Ry

     iteration # 12     ecut=    80.00 Ry     beta= 0.50
     Davidson diagonalization with overlap
     ethr =  1.01E-06,  avg # of iterations =  3.0

     negative rho (up, down):  2.977E-03 0.000E+00

     total cpu time spent up to now is       77.0 secs

     total energy              =     -26.24281619 Ry
     estimated scf accuracy    <       0.00004326 Ry

     iteration # 13     ecut=    80.00 Ry     beta= 0.50
     Davidson diagonalization with overlap
     ethr =  5.41E-07,  avg # of iterations =  2.0

     negative rho (up, down):  2.285E-03 0.000E+00

     total cpu time spent up to now is       87.0 secs

     total energy              =     -26.24282412 Ry
     estimated scf accuracy    <       0.00000174 Ry

     iteration # 14     ecut=    80.00 Ry     beta= 0.50
     Davidson diagonalization with overlap
     ethr =  2.17E-08,  avg # of iterations =  4.9

     negative rho (up, down):  2.181E-03 0.000E+00

     total cpu time spent up to now is       97.3 secs

     total energy              =     -26.24282518 Ry
     estimated scf accuracy    <       0.00001142 Ry

     iteration # 15     ecut=    80.00 Ry     beta= 0.50
     Davidson diagonalization with overlap
     ethr =  2.17E-08,  avg # of iterations =  4.1

     negative rho (up, down):  2.096E-03 0.000E+00

     total cpu time spent up to now is      110.0 secs

     total energy              =     -26.24282608 Ry
     estimated scf accuracy    <       0.00000082 Ry

     iteration # 16     ecut=    80.00 Ry     beta= 0.50
     Davidson diagonalization with overlap
     ethr =  1.03E-08,  avg # of iterations =  2.9

     negative rho (up, down):  2.096E-03 0.000E+00

     total cpu time spent up to now is      111.1 secs

     End of self-consistent calculation

          k = 0.0000 0.0000 0.0000 ( 85147 PWs)   bands (ev):

   -21.2882 -12.9921  -9.5434  -9.5434

          k = 0.0833 0.0000 0.0000 ( 85262 PWs)   bands (ev):

   -21.2563 -13.0887  -9.4126  -9.4126

          k = 0.1667 0.0000 0.0000 ( 85398 PWs)   bands (ev):

   -21.1667 -13.3486  -9.0246  -9.0246

          k = 0.2500 0.0000 0.0000 ( 85442 PWs)   bands (ev):

   -21.0379 -13.6966  -8.3966  -8.3966

          k = 0.3333 0.0000 0.0000 ( 85578 PWs)   bands (ev):

   -20.9003 -14.0398  -7.5752  -7.5752

          k = 0.4167 0.0000 0.0000 ( 85678 PWs)   bands (ev):

   -20.7931 -14.2901  -6.7044  -6.7044

          k =-0.5000 0.0000 0.0000 ( 85766 PWs)   bands (ev):

   -20.7523 -14.3818  -6.2466  -6.2466

     highest occupied level (ev):    -6.2466

!    total energy              =     -26.24282634 Ry
     estimated scf accuracy    <          2.9E-09 Ry

     The total energy is the sum of the following terms:
     one-electron contribution =    -103.40756382 Ry
     hartree contribution      =      52.70609469 Ry
     xc contribution           =      -7.99399903 Ry
     ewald contribution        =      32.45264182 Ry

     convergence has been achieved in  16 iterations

     negative rho (up, down):  2.096E-03 0.000E+00

     Forces acting on atoms (cartesian axes, Ry/au):

     atom    1 type  1   force =     0.00027022    0.00000000    0.00000000
     atom    2 type  2   force =    -0.00027022    0.00000000    0.00000000

     Total force =     0.000382     Total SCF correction =     0.000002


     Computing stress (Cartesian axis) and pressure


     negative rho (up, down):  2.096E-03 0.000E+00
          total   stress  (Ry/bohr**3)                   (kbar)     P=        0.00
   0.00000000   0.00000000   0.00000000            0.00        0.00        0.00
   0.00000000   0.00000000   0.00000000            0.00        0.00        0.00
   0.00000000   0.00000000   0.00000000            0.00        0.00        0.00


     BFGS Geometry Optimization
     Energy error            =      0.0E+00
     Gradient error          =      2.7E-04

     number of scf cycles    =   1
     number of bfgs steps    =   0

     energy   new            =     -26.2428263449 Ry

     new trust radius        =       0.0002702241 bohr
     new conv_thr            =       0.0000000100 Ry


ATOMIC_POSITIONS (angstrom)
B            -0.3698341038        0.0000000000        0.0000000000
N             0.9402750897        0.0000000000        0.0000000000



     Writing output data file ./Chain2atoms.save/
     NEW-OLD atomic charge density approx. for the potential

     negative rho (up, down):  2.096E-03 0.000E+00

     total cpu time spent up to now is      115.1 secs

     Self-consistent Calculation

     iteration #  1     ecut=    80.00 Ry     beta= 0.50
     Davidson diagonalization with overlap
     ethr =  1.00E-06,  avg # of iterations =  1.0

     Threshold (ethr) on eigenvalues was too large:
     Diagonalizing with lowered threshold

     Davidson diagonalization with overlap
     ethr =  4.80E-10,  avg # of iterations =  5.7

     negative rho (up, down):  2.097E-03 0.000E+00

     total cpu time spent up to now is      122.5 secs

     total energy              =     -26.24282631 Ry
     estimated scf accuracy    <       0.00000022 Ry

     iteration #  2     ecut=    80.00 Ry     beta= 0.50
     Davidson diagonalization with overlap
     ethr =  2.69E-09,  avg # of iterations =  1.0

     negative rho (up, down):  2.097E-03 0.000E+00

     total cpu time spent up to now is      131.4 secs

     total energy              =     -26.24282626 Ry
     estimated scf accuracy    <       0.00000008 Ry

     iteration #  3     ecut=    80.00 Ry     beta= 0.50
     Davidson diagonalization with overlap
     ethr =  1.05E-09,  avg # of iterations =  2.1

     negative rho (up, down):  2.096E-03 0.000E+00

     total cpu time spent up to now is      132.5 secs

     End of self-consistent calculation

          k = 0.0000 0.0000 0.0000 ( 85147 PWs)   bands (ev):

   -21.2875 -12.9915  -9.5428  -9.5428

          k = 0.0833 0.0000 0.0000 ( 85262 PWs)   bands (ev):

   -21.2556 -13.0881  -9.4120  -9.4120

          k = 0.1667 0.0000 0.0000 ( 85398 PWs)   bands (ev):

   -21.1660 -13.3480  -9.0240  -9.0240

          k = 0.2500 0.0000 0.0000 ( 85442 PWs)   bands (ev):

   -21.0372 -13.6961  -8.3960  -8.3960

          k = 0.3333 0.0000 0.0000 ( 85578 PWs)   bands (ev):

   -20.8996 -14.0394  -7.5745  -7.5745

          k = 0.4167 0.0000 0.0000 ( 85678 PWs)   bands (ev):

   -20.7924 -14.2896  -6.7036  -6.7036

          k =-0.5000 0.0000 0.0000 ( 85766 PWs)   bands (ev):

   -20.7516 -14.3814  -6.2458  -6.2458

     highest occupied level (ev):    -6.2458

!    total energy              =     -26.24282629 Ry
     estimated scf accuracy    <          1.2E-09 Ry

     The total energy is the sum of the following terms:
     one-electron contribution =    -103.40746665 Ry
     hartree contribution      =      52.70598026 Ry
     xc contribution           =      -7.99398272 Ry
     ewald contribution        =      32.45264283 Ry

     convergence has been achieved in   3 iterations

     negative rho (up, down):  2.096E-03 0.000E+00

     Forces acting on atoms (cartesian axes, Ry/au):

     atom    1 type  1   force =    -0.00049318    0.00000000    0.00000000
     atom    2 type  2   force =     0.00049318    0.00000000    0.00000000

     Total force =     0.000697     Total SCF correction =     0.000075
     SCF correction compared to forces is large: reduce conv_thr to get better values


     Computing stress (Cartesian axis) and pressure


     negative rho (up, down):  2.096E-03 0.000E+00
          total   stress  (Ry/bohr**3)                   (kbar)     P=        0.00
  -0.00000001   0.00000000   0.00000000            0.00        0.00        0.00
   0.00000000  -0.00000004   0.00000000            0.00       -0.01        0.00
   0.00000000   0.00000000  -0.00000004            0.00        0.00       -0.01

     Energy error            =      5.7E-08
     Gradient error          =      4.9E-04

     number of scf cycles    =   2
     number of bfgs steps    =   1

     energy   old            =     -26.2428263449 Ry
     energy   new            =     -26.2428262880 Ry

     CASE: energy  _new > energy  _old

     new trust radius        =       0.0000972473 bohr

     trust_radius < trust_radius_min

     resetting bfgs history

     new conv_thr            =       0.0000000100 Ry


ATOMIC_POSITIONS (angstrom)
B            -0.3698341038        0.0000000000        0.0000000000
N             0.9402750897        0.0000000000        0.0000000000



     Writing output data file ./Chain2atoms.save/
     NEW-OLD atomic charge density approx. for the potential

     negative rho (up, down):  2.096E-03 0.000E+00

     total cpu time spent up to now is      136.5 secs

     Self-consistent Calculation

     iteration #  1     ecut=    80.00 Ry     beta= 0.50
     Davidson diagonalization with overlap
     ethr =  1.00E-06,  avg # of iterations =  1.0

     Threshold (ethr) on eigenvalues was too large:
     Diagonalizing with lowered threshold

     Davidson diagonalization with overlap
     ethr =  2.73E-12,  avg # of iterations =  5.0

     negative rho (up, down):  2.096E-03 0.000E+00

     total cpu time spent up to now is      138.7 secs

     End of self-consistent calculation

          k = 0.0000 0.0000 0.0000 ( 85147 PWs)   bands (ev):

   -21.2877 -12.9917  -9.5430  -9.5430

          k = 0.0833 0.0000 0.0000 ( 85262 PWs)   bands (ev):

   -21.2558 -13.0883  -9.4122  -9.4122

          k = 0.1667 0.0000 0.0000 ( 85398 PWs)   bands (ev):

   -21.1662 -13.3482  -9.0242  -9.0242

          k = 0.2500 0.0000 0.0000 ( 85442 PWs)   bands (ev):

   -21.0374 -13.6963  -8.3962  -8.3962

          k = 0.3333 0.0000 0.0000 ( 85578 PWs)   bands (ev):

   -20.8998 -14.0395  -7.5747  -7.5747

          k = 0.4167 0.0000 0.0000 ( 85678 PWs)   bands (ev):

   -20.7926 -14.2898  -6.7038  -6.7038

          k =-0.5000 0.0000 0.0000 ( 85766 PWs)   bands (ev):

   -20.7518 -14.3815  -6.2460  -6.2460

     highest occupied level (ev):    -6.2460

!    total energy              =     -26.24282629 Ry
     estimated scf accuracy    <          6.4E-10 Ry

     The total energy is the sum of the following terms:
     one-electron contribution =    -103.40759608 Ry
     hartree contribution      =      52.70613736 Ry
     xc contribution           =      -7.99401041 Ry
     ewald contribution        =      32.45264283 Ry

     convergence has been achieved in   1 iterations

     negative rho (up, down):  2.096E-03 0.000E+00

     Forces acting on atoms (cartesian axes, Ry/au):

     atom    1 type  1   force =    -0.00055761    0.00000000    0.00000000
     atom    2 type  2   force =     0.00055761    0.00000000    0.00000000

     Total force =     0.000789     Total SCF correction =     0.000014


     Computing stress (Cartesian axis) and pressure


     negative rho (up, down):  2.096E-03 0.000E+00
          total   stress  (Ry/bohr**3)                   (kbar)     P=        0.00
   0.00000000   0.00000000   0.00000000            0.00        0.00        0.00
   0.00000000  -0.00000002   0.00000000            0.00        0.00        0.00
   0.00000000   0.00000000  -0.00000002            0.00        0.00        0.00

     Energy error            =      5.6E-08
     Gradient error          =      5.6E-04

     number of scf cycles    =   3
     number of bfgs steps    =   1

     energy   old            =     -26.2428263449 Ry
     energy   new            =     -26.2428262892 Ry

     CASE: energy  _new > energy  _old

     new trust radius        =       0.0000977933 bohr

     trust_radius < trust_radius_min

     resetting bfgs history

     Message from routine bfgs:
     history already reset at previous step: stopping
     new conv_thr            =       0.0000000100 Ry


ATOMIC_POSITIONS (angstrom)
B            -0.3698341038        0.0000000000        0.0000000000
N             0.9402750897        0.0000000000        0.0000000000



     Writing output data file ./Chain2atoms.save/
     NEW-OLD atomic charge density approx. for the potential

     negative rho (up, down):  2.096E-03 0.000E+00

     total cpu time spent up to now is      142.6 secs

     Self-consistent Calculation

     iteration #  1     ecut=    80.00 Ry     beta= 0.50
     Davidson diagonalization with overlap
     ethr =  1.00E-06,  avg # of iterations =  1.0

     Threshold (ethr) on eigenvalues was too large:
     Diagonalizing with lowered threshold

     Davidson diagonalization with overlap
     ethr =  8.63E-12,  avg # of iterations =  3.7

     negative rho (up, down):  2.096E-03 0.000E+00

     total cpu time spent up to now is      144.6 secs

     End of self-consistent calculation

          k = 0.0000 0.0000 0.0000 ( 85147 PWs)   bands (ev):

   -21.2874 -12.9914  -9.5428  -9.5428

          k = 0.0833 0.0000 0.0000 ( 85262 PWs)   bands (ev):

   -21.2555 -13.0880  -9.4120  -9.4120

          k = 0.1667 0.0000 0.0000 ( 85398 PWs)   bands (ev):

   -21.1660 -13.3480  -9.0240  -9.0240

          k = 0.2500 0.0000 0.0000 ( 85442 PWs)   bands (ev):

   -21.0371 -13.6960  -8.3960  -8.3960

          k = 0.3333 0.0000 0.0000 ( 85578 PWs)   bands (ev):

   -20.8995 -14.0393  -7.5744  -7.5744

          k = 0.4167 0.0000 0.0000 ( 85678 PWs)   bands (ev):

   -20.7923 -14.2896  -6.7035  -6.7035

          k =-0.5000 0.0000 0.0000 ( 85766 PWs)   bands (ev):

   -20.7515 -14.3813  -6.2457  -6.2457

     highest occupied level (ev):    -6.2457

!    total energy              =     -26.24282629 Ry
     estimated scf accuracy    <          1.5E-09 Ry

     The total energy is the sum of the following terms:
     one-electron contribution =    -103.40739196 Ry
     hartree contribution      =      52.70588942 Ry
     xc contribution           =      -7.99396658 Ry
     ewald contribution        =      32.45264283 Ry

     convergence has been achieved in   1 iterations

     negative rho (up, down):  2.096E-03 0.000E+00

     Forces acting on atoms (cartesian axes, Ry/au):

     atom    1 type  1   force =    -0.00055339    0.00000000    0.00000000
     atom    2 type  2   force =     0.00055339    0.00000000    0.00000000

     Total force =     0.000783     Total SCF correction =     0.000007


     Computing stress (Cartesian axis) and pressure


     negative rho (up, down):  2.096E-03 0.000E+00
          total   stress  (Ry/bohr**3)                   (kbar)     P=       -0.01
  -0.00000002   0.00000000   0.00000000            0.00        0.00        0.00
   0.00000000  -0.00000005   0.00000000            0.00       -0.01        0.00
   0.00000000   0.00000000  -0.00000005            0.00        0.00       -0.01

     Message from routine bfgs:
     history already reset at previous step: stopping
     Energy error            =      5.6E-08
     Gradient error          =      5.5E-04

     bfgs converged in   4 scf cycles and   1 bfgs steps
     (criteria: energy <  1.0E-04 Ry, force <  1.0E-04 Ry/Bohr)

     End of BFGS Geometry Optimization

     Final energy   =     -26.2428262888 Ry

     File ./Chain2atoms.bfgs deleted, as requested
Begin final coordinates

ATOMIC_POSITIONS (angstrom)
B            -0.3698341038        0.0000000000        0.0000000000
N             0.9402750897        0.0000000000        0.0000000000
End final coordinates



     Writing output data file ./Chain2atoms.save/
 
     init_run     :      1.78s CPU      1.89s WALL (       1 calls)
     electrons    :    122.91s CPU    130.72s WALL (       4 calls)
     update_pot   :      3.28s CPU      3.32s WALL (       3 calls)
     forces       :      3.42s CPU      3.65s WALL (       4 calls)
     stress       :      6.61s CPU      7.07s WALL (       4 calls)

     Called by init_run:
     wfcinit      :      0.36s CPU      0.39s WALL (       1 calls)
     potinit      :      0.49s CPU      0.51s WALL (       1 calls)
     hinit0       :      0.66s CPU      0.68s WALL (       1 calls)

     Called by electrons:
     c_bands      :     14.84s CPU     15.46s WALL (      24 calls)
     sum_band     :      5.53s CPU      6.89s WALL (      24 calls)
     v_of_rho     :      2.16s CPU      2.29s WALL (      25 calls)
     newd         :      2.35s CPU      3.43s WALL (      25 calls)
     mix_rho      :     98.58s CPU    103.30s WALL (      24 calls)

     Called by c_bands:
     init_us_2    :      1.05s CPU      1.07s WALL (     399 calls)
     cegterg      :     13.33s CPU     13.92s WALL (     168 calls)

     Called by *egterg:
     cdiaghg      :      0.57s CPU      0.57s WALL (     572 calls)
     h_psi        :     11.51s CPU     12.10s WALL (     621 calls)
     s_psi        :      0.21s CPU      0.21s WALL (     621 calls)
     g_psi        :      0.11s CPU      0.11s WALL (     446 calls)

     Called by h_psi:
     h_psi:calbec :      0.32s CPU      0.33s WALL (     621 calls)
     vloc_psi     :     10.82s CPU     11.40s WALL (     621 calls)
     add_vuspsi   :      0.31s CPU      0.32s WALL (     621 calls)

     General routines
     calbec       :      0.53s CPU      0.54s WALL (     929 calls)
     fft          :      1.88s CPU      2.04s WALL (     381 calls)
     ffts         :     52.09s CPU     56.57s WALL (   11989 calls)
     fftw         :     10.98s CPU     11.62s WALL (    5030 calls)
 
     Parallel routines
     fft_scatt_xy :      8.74s CPU      8.82s WALL (   17400 calls)
     fft_scatt_yz :     22.92s CPU     27.69s WALL (   17400 calls)
 
     PWSCF        :   2m18.54s CPU   2m27.50s WALL

 
   This run was terminated on:  14: 1: 4   7Dec2021            

=------------------------------------------------------------------------------=
   JOB DONE.
=------------------------------------------------------------------------------=
