
     Program MATDYN v.6.7MaX starts on 18Feb2022 at 12:45:18 

     This program is part of the open-source Quantum ESPRESSO suite
     for quantum simulation of materials; please cite
         "P. Giannozzi et al., J. Phys.:Condens. Matter 21 395502 (2009);
         "P. Giannozzi et al., J. Phys.:Condens. Matter 29 465901 (2017);
          URL http://www.quantum-espresso.org", 
     in publications or presentations arising from this work. More details at
     http://www.quantum-espresso.org/quote

     Parallel version (MPI), running on     1 processors

     MPI processes distributed on     1 nodes
     Message from routine matdyn:
     Z* not found in file 2Dgraphene.fc, TO-LO splitting at q=0 will be absent!
     Message from routine matdyn:
     Z* not found in file 2Dgraphene.fc, TO-LO splitting at q=0 will be absent!
 
     MATDYN       :      0.04s CPU      0.06s WALL

 
   This run was terminated on:  12:45:18  18Feb2022            

=------------------------------------------------------------------------------=
   JOB DONE.
=------------------------------------------------------------------------------=
