
     Program PHONON v.6.7MaX starts on 18Feb2022 at 12:20:24 

     This program is part of the open-source Quantum ESPRESSO suite
     for quantum simulation of materials; please cite
         "P. Giannozzi et al., J. Phys.:Condens. Matter 21 395502 (2009);
         "P. Giannozzi et al., J. Phys.:Condens. Matter 29 465901 (2017);
          URL http://www.quantum-espresso.org", 
     in publications or presentations arising from this work. More details at
     http://www.quantum-espresso.org/quote

     Parallel version (MPI), running on    20 processors

     MPI processes distributed on     1 nodes
     R & G space division:  proc/nbgrp/npool/nimage =      20
     Waiting for input...
     Reading input from standard input

     Reading xml data from directory:

     ./2Dgraphene.save/
     Message from routine qexsd_readschema :
     input info not found or not readable in xml file
     file C.pbe-rrkjus.UPF: wavefunction(s)  2S 2P renormalized

     IMPORTANT: XC functional enforced from input :
     Exchange-correlation= PBE
                           (   1   4   3   4   0   0   0)
     Any further DFT definition will be discarded
     Please, verify this is what you really want

 
     Parallelization info
     --------------------
     sticks:   dense  smooth     PW     G-vecs:    dense   smooth      PW
     Min          20      20      8                 2643     2643     660
     Max          23      23      9                 2654     2654     683
     Sum         409     409    163                52949    52949   13511
 

     negative rho (up, down):  6.981E-05 0.000E+00
     Reading collected, re-writing distributed wavefunctions


     Dynamical matrices for ( 6, 6, 1)  uniform grid of q-points
     (   7 q-points):
       N         xq(1)         xq(2)         xq(3) 
       1   0.000000000   0.000000000   0.000000000
       2   0.000000000   0.192450090   0.000000000
       3   0.000000000   0.384900179   0.000000000
       4   0.000000000  -0.577350269   0.000000000
       5   0.166666667   0.288675135   0.000000000
       6   0.166666667   0.481125224   0.000000000
       7   0.333333333   0.577350269   0.000000000

     Calculation of q =    0.0000000   0.0000000   0.0000000

                                                                                

     bravais-lattice index     =            4
     lattice parameter (alat)  =       4.6531  a.u.
     unit-cell volume          =     708.6620 (a.u.)^3
     number of atoms/cell      =            2
     number of atomic types    =            1
     kinetic-energy cut-off    =      90.0000  Ry
     charge density cut-off    =     270.0000  Ry
     convergence threshold     =      1.0E-20
     beta                      =       0.7000
     number of iterations used =            4
     Exchange-correlation= PBE
                           (   1   4   3   4   0   0   0)


     celldm(1)=    4.65307  celldm(2)=    0.00000  celldm(3)=    8.12249
     celldm(4)=    0.00000  celldm(5)=    0.00000  celldm(6)=    0.00000

     crystal axes: (cart. coord. in units of alat)
               a(1) = (  1.0000  0.0000  0.0000 )  
               a(2) = ( -0.5000  0.8660  0.0000 )  
               a(3) = (  0.0000  0.0000  8.1225 )  

     reciprocal axes: (cart. coord. in units 2 pi/alat)
               b(1) = (  1.0000  0.5774  0.0000 )  
               b(2) = (  0.0000  1.1547  0.0000 )  
               b(3) = (  0.0000  0.0000  0.1231 )  


     Atoms inside the unit cell: 

     Cartesian axes

     site n.  atom      mass           positions (alat units)
        1     C   12.0107   tau(    1) = (    0.00000    0.57735    4.06124  )
        2     C   12.0107   tau(    2) = (    0.50000    0.28868    4.06124  )

     Computing dynamical matrix for 
                    q = (   0.0000000   0.0000000   0.0000000 )
 
     25 Sym.Ops. (with q -> -q+G )


     G cutoff =  148.0757  (   2654 G-vectors)     FFT grid: ( 25, 25,200)

     number of k points=    19  Methfessel-Paxton smearing, width (Ry)=  0.0200

     PseudoPot. # 1 for C  read from file:
     ../Pseudo/C.pbe-rrkjus.UPF
     MD5 check sum: 00fb224312de0c5b6853bd333518df6f
     Pseudo is Ultrasoft, Zval =  4.0
     Generated by new atomic code, or converted to UPF format
     Using radial grid of  627 points,  4 beta functions with: 
                l(1) =   0
                l(2) =   0
                l(3) =   1
                l(4) =   1
     Q(r) pseudized with 0 coefficients 


     Mode symmetry, D_6h(6/mmm) point group:


     Atomic displacements:
     There are    4 irreducible representations

     Representation     1      1 modes -  To be done

     Representation     2      2 modes -  To be done

     Representation     3      1 modes -  To be done

     Representation     4      2 modes -  To be done



     Alpha used in Ewald sum =   2.8000
     PHONON       :      1.00s CPU      1.13s WALL



     Representation #   1 mode #   1

     Self-consistent Calculation
 
     Pert. #  1: Fermi energy shift (Ry) =     4.3082E-27     0.0000E+00

      iter #   1 total cpu time :     2.1 secs   av.it.:   3.9
      thresh= 1.000E-02 alpha_mix =  0.700 |ddv_scf|^2 =  1.090E-07
 
     Pert. #  1: Fermi energy shift (Ry) =     0.0000E+00     0.0000E+00

      iter #   2 total cpu time :     3.2 secs   av.it.:   7.3
      thresh= 3.302E-05 alpha_mix =  0.700 |ddv_scf|^2 =  9.167E-09
 
     Pert. #  1: Fermi energy shift (Ry) =     2.6926E-28     0.0000E+00

      iter #   3 total cpu time :     4.2 secs   av.it.:   6.8
      thresh= 9.574E-06 alpha_mix =  0.700 |ddv_scf|^2 =  1.485E-11
 
     Pert. #  1: Fermi energy shift (Ry) =     0.0000E+00     0.0000E+00

      iter #   4 total cpu time :     5.6 secs   av.it.:   8.1
      thresh= 3.854E-07 alpha_mix =  0.700 |ddv_scf|^2 =  6.139E-14
 
     Pert. #  1: Fermi energy shift (Ry) =     2.1541E-27     0.0000E+00

      iter #   5 total cpu time :     6.7 secs   av.it.:   7.5
      thresh= 2.478E-08 alpha_mix =  0.700 |ddv_scf|^2 =  1.596E-16
 
     Pert. #  1: Fermi energy shift (Ry) =     2.1541E-27     0.0000E+00

      iter #   6 total cpu time :     7.7 secs   av.it.:   8.1
      thresh= 1.263E-09 alpha_mix =  0.700 |ddv_scf|^2 =  3.218E-18
 
     Pert. #  1: Fermi energy shift (Ry) =     2.1541E-27     0.0000E+00

      iter #   7 total cpu time :     8.7 secs   av.it.:   7.4
      thresh= 1.794E-10 alpha_mix =  0.700 |ddv_scf|^2 =  7.634E-22

     End of self-consistent calculation

     Convergence has been achieved 


     Representation #   2 modes #   2   3

     Self-consistent Calculation
 
     Pert. #  1: Fermi energy shift (Ry) =     2.7105E-20     2.6785E-41
     Pert. #  2: Fermi energy shift (Ry) =     1.1520E-19    -3.8265E-41

      iter #   1 total cpu time :    10.5 secs   av.it.:   4.9
      thresh= 1.000E-02 alpha_mix =  0.700 |ddv_scf|^2 =  4.176E-08
 
     Pert. #  1: Fermi energy shift (Ry) =    -6.1763E-23     5.7397E-42
     Pert. #  2: Fermi energy shift (Ry) =     1.2353E-22    -2.2481E-41

      iter #   2 total cpu time :    12.6 secs   av.it.:   9.8
      thresh= 2.044E-05 alpha_mix =  0.700 |ddv_scf|^2 =  1.505E-09
 
     Pert. #  1: Fermi energy shift (Ry) =     3.0881E-23    -1.9132E-42
     Pert. #  2: Fermi energy shift (Ry) =    -5.7351E-23    -1.6263E-41

      iter #   3 total cpu time :    14.6 secs   av.it.:   8.2
      thresh= 3.880E-06 alpha_mix =  0.700 |ddv_scf|^2 =  7.059E-11
 
     Pert. #  1: Fermi energy shift (Ry) =    -8.2718E-24     5.7397E-42
     Pert. #  2: Fermi energy shift (Ry) =    -5.9281E-24    -2.2481E-41

      iter #   4 total cpu time :    16.6 secs   av.it.:   7.7
      thresh= 8.402E-07 alpha_mix =  0.700 |ddv_scf|^2 =  1.824E-14
 
     Pert. #  1: Fermi energy shift (Ry) =     3.3087E-24     1.9132E-42
     Pert. #  2: Fermi energy shift (Ry) =    -1.2408E-23    -2.8220E-41

      iter #   5 total cpu time :    18.6 secs   av.it.:   8.8
      thresh= 1.350E-08 alpha_mix =  0.700 |ddv_scf|^2 =  6.849E-17
 
     Pert. #  1: Fermi energy shift (Ry) =     8.5475E-24     1.9132E-42
     Pert. #  2: Fermi energy shift (Ry) =    -1.5716E-23    -2.8220E-41

      iter #   6 total cpu time :    21.0 secs   av.it.:   8.9
      thresh= 8.276E-10 alpha_mix =  0.700 |ddv_scf|^2 =  9.468E-19
 
     Pert. #  1: Fermi energy shift (Ry) =    -6.6174E-24     1.9132E-42
     Pert. #  2: Fermi energy shift (Ry) =    -5.9281E-24    -2.8220E-41

      iter #   7 total cpu time :    23.2 secs   av.it.:   8.9
      thresh= 9.730E-11 alpha_mix =  0.700 |ddv_scf|^2 =  4.508E-22

     End of self-consistent calculation

     Convergence has been achieved 


     Representation #   3 mode #   4

     Self-consistent Calculation
 
     Pert. #  1: Fermi energy shift (Ry) =    -8.6165E-27     0.0000E+00

      iter #   1 total cpu time :    24.2 secs   av.it.:   5.5
      thresh= 1.000E-02 alpha_mix =  0.700 |ddv_scf|^2 =  7.083E-05
 
     Pert. #  1: Fermi energy shift (Ry) =     8.6165E-27     0.0000E+00

      iter #   2 total cpu time :    25.3 secs   av.it.:   7.6
      thresh= 8.416E-04 alpha_mix =  0.700 |ddv_scf|^2 =  8.255E-05
 
     Pert. #  1: Fermi energy shift (Ry) =    -2.6926E-28     0.0000E+00

      iter #   3 total cpu time :    26.3 secs   av.it.:   7.1
      thresh= 9.086E-04 alpha_mix =  0.700 |ddv_scf|^2 =  5.087E-08
 
     Pert. #  1: Fermi energy shift (Ry) =    -3.3658E-29     0.0000E+00

      iter #   4 total cpu time :    27.3 secs   av.it.:   7.1
      thresh= 2.255E-05 alpha_mix =  0.700 |ddv_scf|^2 =  3.472E-10
 
     Pert. #  1: Fermi energy shift (Ry) =    -3.3658E-29     0.0000E+00

      iter #   5 total cpu time :    28.5 secs   av.it.:   6.7
      thresh= 1.863E-06 alpha_mix =  0.700 |ddv_scf|^2 =  2.902E-11
 
     Pert. #  1: Fermi energy shift (Ry) =     0.0000E+00     0.0000E+00

      iter #   6 total cpu time :    29.5 secs   av.it.:   7.0
      thresh= 5.387E-07 alpha_mix =  0.700 |ddv_scf|^2 =  2.834E-14
 
     Pert. #  1: Fermi energy shift (Ry) =     3.3658E-29     0.0000E+00

      iter #   7 total cpu time :    30.5 secs   av.it.:   6.9
      thresh= 1.683E-08 alpha_mix =  0.700 |ddv_scf|^2 =  8.816E-16
 
     Pert. #  1: Fermi energy shift (Ry) =     3.3658E-29     0.0000E+00

      iter #   8 total cpu time :    31.6 secs   av.it.:   7.0
      thresh= 2.969E-09 alpha_mix =  0.700 |ddv_scf|^2 =  6.682E-19
 
     Pert. #  1: Fermi energy shift (Ry) =    -3.3658E-29     0.0000E+00

      iter #   9 total cpu time :    32.7 secs   av.it.:   7.3
      thresh= 8.175E-11 alpha_mix =  0.700 |ddv_scf|^2 =  3.471E-20
 
     Pert. #  1: Fermi energy shift (Ry) =     3.3658E-29     0.0000E+00

      iter #  10 total cpu time :    34.0 secs   av.it.:   7.1
      thresh= 1.863E-11 alpha_mix =  0.700 |ddv_scf|^2 =  5.861E-23

     End of self-consistent calculation

     Convergence has been achieved 


     Representation #   4 modes #   5   6

     Self-consistent Calculation
 
     Pert. #  1: Fermi energy shift (Ry) =    -1.2925E-26    -1.0031E-36
     Pert. #  2: Fermi energy shift (Ry) =    -1.0771E-26     2.0062E-36

      iter #   1 total cpu time :    35.8 secs   av.it.:   4.7
      thresh= 1.000E-02 alpha_mix =  0.700 |ddv_scf|^2 =  2.050E-08
 
     Pert. #  1: Fermi energy shift (Ry) =     2.5849E-26     1.9592E-39
     Pert. #  2: Fermi energy shift (Ry) =    -6.4623E-27     4.4081E-39

      iter #   2 total cpu time :    37.8 secs   av.it.:   8.9
      thresh= 1.432E-05 alpha_mix =  0.700 |ddv_scf|^2 =  1.449E-09
 
     Pert. #  1: Fermi energy shift (Ry) =    -1.2925E-26     9.7958E-40
     Pert. #  2: Fermi energy shift (Ry) =    -1.2925E-26    -3.4285E-39

      iter #   3 total cpu time :    39.8 secs   av.it.:   7.8
      thresh= 3.807E-06 alpha_mix =  0.700 |ddv_scf|^2 =  1.365E-11
 
     Pert. #  1: Fermi energy shift (Ry) =    -4.3082E-26     4.5918E-41
     Pert. #  2: Fermi energy shift (Ry) =    -4.3082E-27    -1.5306E-41

      iter #   4 total cpu time :    41.9 secs   av.it.:   8.6
      thresh= 3.695E-07 alpha_mix =  0.700 |ddv_scf|^2 =  1.481E-14
 
     Pert. #  1: Fermi energy shift (Ry) =    -1.7233E-26    -3.0612E-41
     Pert. #  2: Fermi energy shift (Ry) =     1.7233E-26     6.1224E-41

      iter #   5 total cpu time :    44.0 secs   av.it.:   8.7
      thresh= 1.217E-08 alpha_mix =  0.700 |ddv_scf|^2 =  1.650E-17
 
     Pert. #  1: Fermi energy shift (Ry) =    -1.7233E-26    -3.0612E-41
     Pert. #  2: Fermi energy shift (Ry) =     8.6165E-27     6.1224E-41

      iter #   6 total cpu time :    46.6 secs   av.it.:   9.1
      thresh= 4.062E-10 alpha_mix =  0.700 |ddv_scf|^2 =  6.087E-19
 
     Pert. #  1: Fermi energy shift (Ry) =    -2.1541E-26    -3.0612E-41
     Pert. #  2: Fermi energy shift (Ry) =    -2.1541E-26     6.1224E-41

      iter #   7 total cpu time :    48.7 secs   av.it.:   9.3
      thresh= 7.802E-11 alpha_mix =  0.700 |ddv_scf|^2 =  1.888E-21

     End of self-consistent calculation

     Convergence has been achieved 
 
     Number of q in the star =    1
     List of q in the star:
          1   0.000000000   0.000000000   0.000000000

     Diagonalizing the dynamical matrix

     q = (    0.000000000   0.000000000   0.000000000 ) 

 **************************************************************************
     freq (    1) =      -1.045236 [THz] =     -34.865311 [cm-1]
     freq (    2) =      -1.045236 [THz] =     -34.865311 [cm-1]
     freq (    3) =       2.453706 [THz] =      81.846826 [cm-1]
     freq (    4) =      26.498113 [THz] =     883.881914 [cm-1]
     freq (    5) =      44.059978 [THz] =    1469.682657 [cm-1]
     freq (    6) =      44.059978 [THz] =    1469.682657 [cm-1]
 **************************************************************************

     Mode symmetry, D_6h(6/mmm) point group:

     freq (   1-   2) =        -34.9  [cm-1]   --> E_1u            I  
     freq (   3-   3) =         81.8  [cm-1]   --> A_2u            I  
     freq (   4-   4) =        883.9  [cm-1]   --> B_1g               
     freq (   5-   6) =       1469.7  [cm-1]   --> E_2g            R  

     Calculation of q =    0.0000000   0.1924501   0.0000000

     Subspace diagonalization in iterative solution of the eigenvalue problem:
     one sub-group per band group will be used
     scalapack distributed-memory algorithm (size of sub-group:  4*  4 procs)

 
     Parallelization info
     --------------------
     sticks:   dense  smooth     PW     G-vecs:    dense   smooth      PW
     Min          20      20      8                 2643     2643     702
     Max          23      23      9                 2654     2654     737
     Sum         409     409    163                52949    52949   14317
 


     bravais-lattice index     =            4
     lattice parameter (alat)  =       4.6531  a.u.
     unit-cell volume          =     708.6620 (a.u.)^3
     number of atoms/cell      =            2
     number of atomic types    =            1
     number of electrons       =         8.00
     number of Kohn-Sham states=            8
     kinetic-energy cutoff     =      90.0000  Ry
     charge density cutoff     =     270.0000  Ry
     Exchange-correlation= PBE
                           (   1   4   3   4   0   0   0)

     celldm(1)=   4.653073  celldm(2)=   0.000000  celldm(3)=   8.122487
     celldm(4)=   0.000000  celldm(5)=   0.000000  celldm(6)=   0.000000

     crystal axes: (cart. coord. in units of alat)
               a(1) = (   1.000000   0.000000   0.000000 )  
               a(2) = (  -0.500000   0.866025   0.000000 )  
               a(3) = (   0.000000   0.000000   8.122487 )  

     reciprocal axes: (cart. coord. in units 2 pi/alat)
               b(1) = (  1.000000  0.577350  0.000000 )  
               b(2) = (  0.000000  1.154701  0.000000 )  
               b(3) = (  0.000000  0.000000  0.123115 )  


     PseudoPot. # 1 for C  read from file:
     ../Pseudo/C.pbe-rrkjus.UPF
     MD5 check sum: 00fb224312de0c5b6853bd333518df6f
     Pseudo is Ultrasoft, Zval =  4.0
     Generated by new atomic code, or converted to UPF format
     Using radial grid of  627 points,  4 beta functions with: 
                l(1) =   0
                l(2) =   0
                l(3) =   1
                l(4) =   1
     Q(r) pseudized with 0 coefficients 


     atomic species   valence    mass     pseudopotential
        C              4.00    12.01070     C ( 1.00)

     24 Sym. Ops., with inversion, found



   Cartesian axes

     site n.     atom                  positions (alat units)
         1           C   tau(   1) = (   0.0000000   0.5773503   4.0612436  )
         2           C   tau(   2) = (   0.5000000   0.2886751   4.0612436  )

     number of k points=   156  Methfessel-Paxton smearing, width (Ry)=  0.0200

     Number of k-points >= 100: set verbosity='high' to print them.

     Dense  grid:    52949 G-vectors     FFT dimensions: (  25,  25, 200)

     Estimated max dynamical RAM per process >       3.20 MB

     Estimated total dynamical RAM >      63.97 MB

     The potential is recalculated from file :
     ./_ph0/2Dgraphene.save/charge-density


     negative rho (up, down):  6.981E-05 0.000E+00
     Starting wfcs are    8 atomic wfcs

     Band Structure Calculation
     Davidson diagonalization with overlap

     ethr =  1.25E-10,  avg # of iterations = 25.0

     total cpu time spent up to now is       37.8 secs

     End of band structure calculation

     Number of k-points >= 100: set verbosity='high' to print the bands.

     the Fermi energy is    -2.3445 ev

     Writing output data file ./_ph0/2Dgraphene.save/

                                                                                

     bravais-lattice index     =            4
     lattice parameter (alat)  =       4.6531  a.u.
     unit-cell volume          =     708.6620 (a.u.)^3
     number of atoms/cell      =            2
     number of atomic types    =            1
     kinetic-energy cut-off    =      90.0000  Ry
     charge density cut-off    =     270.0000  Ry
     convergence threshold     =      1.0E-20
     beta                      =       0.7000
     number of iterations used =            4
     Exchange-correlation= PBE
                           (   1   4   3   4   0   0   0)


     celldm(1)=    4.65307  celldm(2)=    0.00000  celldm(3)=    8.12249
     celldm(4)=    0.00000  celldm(5)=    0.00000  celldm(6)=    0.00000

     crystal axes: (cart. coord. in units of alat)
               a(1) = (  1.0000  0.0000  0.0000 )  
               a(2) = ( -0.5000  0.8660  0.0000 )  
               a(3) = (  0.0000  0.0000  8.1225 )  

     reciprocal axes: (cart. coord. in units 2 pi/alat)
               b(1) = (  1.0000  0.5774  0.0000 )  
               b(2) = (  0.0000  1.1547  0.0000 )  
               b(3) = (  0.0000  0.0000  0.1231 )  


     Atoms inside the unit cell: 

     Cartesian axes

     site n.  atom      mass           positions (alat units)
        1     C   12.0107   tau(    1) = (    0.00000    0.57735    4.06124  )
        2     C   12.0107   tau(    2) = (    0.50000    0.28868    4.06124  )

     Computing dynamical matrix for 
                    q = (   0.0000000   0.1924501   0.0000000 )
 
      4 Sym.Ops. (no q -> -q+G )


     G cutoff =  148.0757  (   2654 G-vectors)     FFT grid: ( 25, 25,200)

     number of k points=   156  Methfessel-Paxton smearing, width (Ry)=  0.0200

     PseudoPot. # 1 for C  read from file:
     ../Pseudo/C.pbe-rrkjus.UPF
     MD5 check sum: 00fb224312de0c5b6853bd333518df6f
     Pseudo is Ultrasoft, Zval =  4.0
     Generated by new atomic code, or converted to UPF format
     Using radial grid of  627 points,  4 beta functions with: 
                l(1) =   0
                l(2) =   0
                l(3) =   1
                l(4) =   1
     Q(r) pseudized with 0 coefficients 


     Mode symmetry, C_2v (mm2)  point group:


     Atomic displacements:
     There are    6 irreducible representations

     Representation     1      1 modes -  To be done

     Representation     2      1 modes -  To be done

     Representation     3      1 modes -  To be done

     Representation     4      1 modes -  To be done

     Representation     5      1 modes -  To be done

     Representation     6      1 modes -  To be done



     Alpha used in Ewald sum =   2.8000
     PHONON       :   1m25.46s CPU   1m28.30s WALL



     Representation #   1 mode #   1

     Self-consistent Calculation

      iter #   1 total cpu time :    90.7 secs   av.it.:   5.4
      thresh= 1.000E-02 alpha_mix =  0.700 |ddv_scf|^2 =  3.212E-05

      iter #   2 total cpu time :    93.6 secs   av.it.:   8.5
      thresh= 5.667E-04 alpha_mix =  0.700 |ddv_scf|^2 =  2.016E-04

      iter #   3 total cpu time :    96.2 secs   av.it.:   7.2
      thresh= 1.420E-03 alpha_mix =  0.700 |ddv_scf|^2 =  1.136E-08

      iter #   4 total cpu time :    99.3 secs   av.it.:   9.3
      thresh= 1.066E-05 alpha_mix =  0.700 |ddv_scf|^2 =  4.330E-09

      iter #   5 total cpu time :   102.3 secs   av.it.:   9.0
      thresh= 6.581E-06 alpha_mix =  0.700 |ddv_scf|^2 =  1.117E-10

      iter #   6 total cpu time :   106.5 secs   av.it.:   8.9
      thresh= 1.057E-06 alpha_mix =  0.700 |ddv_scf|^2 =  6.360E-12

      iter #   7 total cpu time :   111.8 secs   av.it.:   7.7
      thresh= 2.522E-07 alpha_mix =  0.700 |ddv_scf|^2 =  2.813E-12

      iter #   8 total cpu time :   114.6 secs   av.it.:   7.7
      thresh= 1.677E-07 alpha_mix =  0.700 |ddv_scf|^2 =  4.428E-13

      iter #   9 total cpu time :   117.4 secs   av.it.:   7.7
      thresh= 6.654E-08 alpha_mix =  0.700 |ddv_scf|^2 =  4.205E-16

      iter #  10 total cpu time :   120.3 secs   av.it.:   8.6
      thresh= 2.051E-09 alpha_mix =  0.700 |ddv_scf|^2 =  2.603E-17

      iter #  11 total cpu time :   123.3 secs   av.it.:   9.0
      thresh= 5.102E-10 alpha_mix =  0.700 |ddv_scf|^2 =  3.883E-18

      iter #  12 total cpu time :   126.4 secs   av.it.:   9.1
      thresh= 1.971E-10 alpha_mix =  0.700 |ddv_scf|^2 =  2.063E-19

      iter #  13 total cpu time :   129.6 secs   av.it.:   9.3
      thresh= 4.542E-11 alpha_mix =  0.700 |ddv_scf|^2 =  8.506E-20

      iter #  14 total cpu time :   132.6 secs   av.it.:   9.0
      thresh= 2.917E-11 alpha_mix =  0.700 |ddv_scf|^2 =  8.530E-20

      iter #  15 total cpu time :   135.3 secs   av.it.:   7.5
      thresh= 2.921E-11 alpha_mix =  0.700 |ddv_scf|^2 =  3.457E-21

     End of self-consistent calculation

     Convergence has been achieved 


     Representation #   2 mode #   2

     Self-consistent Calculation

      iter #   1 total cpu time :   137.8 secs   av.it.:   5.4
      thresh= 1.000E-02 alpha_mix =  0.700 |ddv_scf|^2 =  3.212E-05

      iter #   2 total cpu time :   140.8 secs   av.it.:   8.5
      thresh= 5.667E-04 alpha_mix =  0.700 |ddv_scf|^2 =  2.016E-04

      iter #   3 total cpu time :   143.4 secs   av.it.:   7.2
      thresh= 1.420E-03 alpha_mix =  0.700 |ddv_scf|^2 =  1.136E-08

      iter #   4 total cpu time :   146.5 secs   av.it.:   9.3
      thresh= 1.066E-05 alpha_mix =  0.700 |ddv_scf|^2 =  4.330E-09

      iter #   5 total cpu time :   149.9 secs   av.it.:   9.0
      thresh= 6.581E-06 alpha_mix =  0.700 |ddv_scf|^2 =  1.117E-10

      iter #   6 total cpu time :   153.7 secs   av.it.:   8.9
      thresh= 1.057E-06 alpha_mix =  0.700 |ddv_scf|^2 =  6.360E-12

      iter #   7 total cpu time :   156.8 secs   av.it.:   7.7
      thresh= 2.522E-07 alpha_mix =  0.700 |ddv_scf|^2 =  2.813E-12

      iter #   8 total cpu time :   159.6 secs   av.it.:   7.7
      thresh= 1.677E-07 alpha_mix =  0.700 |ddv_scf|^2 =  4.428E-13

      iter #   9 total cpu time :   162.3 secs   av.it.:   7.7
      thresh= 6.654E-08 alpha_mix =  0.700 |ddv_scf|^2 =  4.205E-16

      iter #  10 total cpu time :   165.4 secs   av.it.:   8.6
      thresh= 2.051E-09 alpha_mix =  0.700 |ddv_scf|^2 =  2.603E-17

      iter #  11 total cpu time :   168.6 secs   av.it.:   9.0
      thresh= 5.102E-10 alpha_mix =  0.700 |ddv_scf|^2 =  3.883E-18

      iter #  12 total cpu time :   171.9 secs   av.it.:   9.1
      thresh= 1.971E-10 alpha_mix =  0.700 |ddv_scf|^2 =  2.063E-19

      iter #  13 total cpu time :   175.7 secs   av.it.:   9.3
      thresh= 4.542E-11 alpha_mix =  0.700 |ddv_scf|^2 =  8.506E-20

      iter #  14 total cpu time :   179.3 secs   av.it.:   9.0
      thresh= 2.917E-11 alpha_mix =  0.700 |ddv_scf|^2 =  8.530E-20

      iter #  15 total cpu time :   182.9 secs   av.it.:   7.5
      thresh= 2.921E-11 alpha_mix =  0.700 |ddv_scf|^2 =  3.457E-21

     End of self-consistent calculation

     Convergence has been achieved 


     Representation #   3 mode #   3

     Self-consistent Calculation

      iter #   1 total cpu time :   185.5 secs   av.it.:   5.0
      thresh= 1.000E-02 alpha_mix =  0.700 |ddv_scf|^2 =  1.361E-07

      iter #   2 total cpu time :   188.6 secs   av.it.:   9.2
      thresh= 3.689E-05 alpha_mix =  0.700 |ddv_scf|^2 =  5.873E-09

      iter #   3 total cpu time :   191.7 secs   av.it.:   7.8
      thresh= 7.664E-06 alpha_mix =  0.700 |ddv_scf|^2 =  2.671E-10

      iter #   4 total cpu time :   194.3 secs   av.it.:   7.2
      thresh= 1.634E-06 alpha_mix =  0.700 |ddv_scf|^2 =  1.524E-13

      iter #   5 total cpu time :   197.3 secs   av.it.:   9.2
      thresh= 3.903E-08 alpha_mix =  0.700 |ddv_scf|^2 =  4.673E-15

      iter #   6 total cpu time :   200.2 secs   av.it.:   8.4
      thresh= 6.836E-09 alpha_mix =  0.700 |ddv_scf|^2 =  2.395E-18

      iter #   7 total cpu time :   203.2 secs   av.it.:   8.8
      thresh= 1.548E-10 alpha_mix =  0.700 |ddv_scf|^2 =  2.372E-19

      iter #   8 total cpu time :   206.3 secs   av.it.:   9.0
      thresh= 4.870E-11 alpha_mix =  0.700 |ddv_scf|^2 =  3.901E-22

     End of self-consistent calculation

     Convergence has been achieved 


     Representation #   4 mode #   4

     Self-consistent Calculation

      iter #   1 total cpu time :   209.4 secs   av.it.:   5.0
      thresh= 1.000E-02 alpha_mix =  0.700 |ddv_scf|^2 =  1.361E-07

      iter #   2 total cpu time :   212.5 secs   av.it.:   9.2
      thresh= 3.689E-05 alpha_mix =  0.700 |ddv_scf|^2 =  5.873E-09

      iter #   3 total cpu time :   215.5 secs   av.it.:   7.8
      thresh= 7.664E-06 alpha_mix =  0.700 |ddv_scf|^2 =  2.671E-10

      iter #   4 total cpu time :   218.4 secs   av.it.:   7.2
      thresh= 1.634E-06 alpha_mix =  0.700 |ddv_scf|^2 =  1.524E-13

      iter #   5 total cpu time :   221.5 secs   av.it.:   9.2
      thresh= 3.903E-08 alpha_mix =  0.700 |ddv_scf|^2 =  4.673E-15

      iter #   6 total cpu time :   224.6 secs   av.it.:   8.4
      thresh= 6.836E-09 alpha_mix =  0.700 |ddv_scf|^2 =  2.395E-18

      iter #   7 total cpu time :   227.6 secs   av.it.:   8.8
      thresh= 1.548E-10 alpha_mix =  0.700 |ddv_scf|^2 =  2.372E-19

      iter #   8 total cpu time :   230.7 secs   av.it.:   9.0
      thresh= 4.870E-11 alpha_mix =  0.700 |ddv_scf|^2 =  3.901E-22

     End of self-consistent calculation

     Convergence has been achieved 


     Representation #   5 mode #   5

     Self-consistent Calculation

      iter #   1 total cpu time :   233.2 secs   av.it.:   5.5
      thresh= 1.000E-02 alpha_mix =  0.700 |ddv_scf|^2 =  3.654E-06

      iter #   2 total cpu time :   236.1 secs   av.it.:   8.8
      thresh= 1.911E-04 alpha_mix =  0.700 |ddv_scf|^2 =  1.246E-06

      iter #   3 total cpu time :   239.0 secs   av.it.:   8.3
      thresh= 1.116E-04 alpha_mix =  0.700 |ddv_scf|^2 =  3.655E-09

      iter #   4 total cpu time :   242.3 secs   av.it.:   7.3
      thresh= 6.046E-06 alpha_mix =  0.700 |ddv_scf|^2 =  7.541E-12

      iter #   5 total cpu time :   246.0 secs   av.it.:   8.7
      thresh= 2.746E-07 alpha_mix =  0.700 |ddv_scf|^2 =  1.031E-13

      iter #   6 total cpu time :   249.8 secs   av.it.:   8.3
      thresh= 3.212E-08 alpha_mix =  0.700 |ddv_scf|^2 =  1.022E-15

      iter #   7 total cpu time :   252.9 secs   av.it.:   8.6
      thresh= 3.198E-09 alpha_mix =  0.700 |ddv_scf|^2 =  7.105E-17

      iter #   8 total cpu time :   256.2 secs   av.it.:   8.4
      thresh= 8.429E-10 alpha_mix =  0.700 |ddv_scf|^2 =  2.692E-18

      iter #   9 total cpu time :   259.5 secs   av.it.:   8.3
      thresh= 1.641E-10 alpha_mix =  0.700 |ddv_scf|^2 =  4.410E-20

      iter #  10 total cpu time :   262.7 secs   av.it.:   8.5
      thresh= 2.100E-11 alpha_mix =  0.700 |ddv_scf|^2 =  3.712E-21

     End of self-consistent calculation

     Convergence has been achieved 


     Representation #   6 mode #   6

     Self-consistent Calculation

      iter #   1 total cpu time :   266.5 secs   av.it.:   5.5
      thresh= 1.000E-02 alpha_mix =  0.700 |ddv_scf|^2 =  3.654E-06

      iter #   2 total cpu time :   270.0 secs   av.it.:   8.8
      thresh= 1.911E-04 alpha_mix =  0.700 |ddv_scf|^2 =  1.246E-06

      iter #   3 total cpu time :   273.1 secs   av.it.:   8.3
      thresh= 1.116E-04 alpha_mix =  0.700 |ddv_scf|^2 =  3.655E-09

      iter #   4 total cpu time :   275.7 secs   av.it.:   7.3
      thresh= 6.046E-06 alpha_mix =  0.700 |ddv_scf|^2 =  7.541E-12

      iter #   5 total cpu time :   279.4 secs   av.it.:   8.7
      thresh= 2.746E-07 alpha_mix =  0.700 |ddv_scf|^2 =  1.031E-13

      iter #   6 total cpu time :   282.8 secs   av.it.:   8.3
      thresh= 3.212E-08 alpha_mix =  0.700 |ddv_scf|^2 =  1.022E-15

      iter #   7 total cpu time :   286.3 secs   av.it.:   8.6
      thresh= 3.198E-09 alpha_mix =  0.700 |ddv_scf|^2 =  7.105E-17

      iter #   8 total cpu time :   289.4 secs   av.it.:   8.4
      thresh= 8.429E-10 alpha_mix =  0.700 |ddv_scf|^2 =  2.692E-18

      iter #   9 total cpu time :   306.8 secs   av.it.:   8.3
      thresh= 1.641E-10 alpha_mix =  0.700 |ddv_scf|^2 =  4.410E-20

      iter #  10 total cpu time :   309.7 secs   av.it.:   8.5
      thresh= 2.100E-11 alpha_mix =  0.700 |ddv_scf|^2 =  3.712E-21

     End of self-consistent calculation

     Convergence has been achieved 
 
     Number of q in the star =    6
     List of q in the star:
          1   0.000000000   0.192450090   0.000000000
          2   0.000000000  -0.192450090   0.000000000
          3  -0.166666667   0.096225045   0.000000000
          4  -0.166666667  -0.096225045   0.000000000
          5   0.166666667  -0.096225045   0.000000000
          6   0.166666667   0.096225045   0.000000000

     Diagonalizing the dynamical matrix

     q = (    0.000000000   0.192450090   0.000000000 ) 

 **************************************************************************
     freq (    1) =       3.239740 [THz] =     108.066110 [cm-1]
     freq (    2) =      10.021086 [THz] =     334.267454 [cm-1]
     freq (    3) =      16.303835 [THz] =     543.837406 [cm-1]
     freq (    4) =      25.815224 [THz] =     861.103180 [cm-1]
     freq (    5) =      45.230072 [THz] =    1508.712800 [cm-1]
     freq (    6) =      47.946188 [THz] =    1599.312686 [cm-1]
 **************************************************************************

     Mode symmetry, C_2v (mm2)  point group:

     freq (   1-   1) =        108.1  [cm-1]   --> B_2  D_4  S_4      
     freq (   2-   2) =        334.3  [cm-1]   --> B_1  D_3  S_3      
     freq (   3-   3) =        543.8  [cm-1]   --> A_1  D_1  S_1      
     freq (   4-   4) =        861.1  [cm-1]   --> B_2  D_4  S_4      
     freq (   5-   5) =       1508.7  [cm-1]   --> B_1  D_3  S_3      
     freq (   6-   6) =       1599.3  [cm-1]   --> A_1  D_1  S_1      

     Calculation of q =    0.0000000   0.3849002   0.0000000
 
     Parallelization info
     --------------------
     sticks:   dense  smooth     PW     G-vecs:    dense   smooth      PW
     Min          20      20      8                 2643     2643     748
     Max          23      23      9                 2654     2654     783
     Sum         409     409    169                52949    52949   15119
 


     bravais-lattice index     =            4
     lattice parameter (alat)  =       4.6531  a.u.
     unit-cell volume          =     708.6620 (a.u.)^3
     number of atoms/cell      =            2
     number of atomic types    =            1
     number of electrons       =         8.00
     number of Kohn-Sham states=            8
     kinetic-energy cutoff     =      90.0000  Ry
     charge density cutoff     =     270.0000  Ry
     Exchange-correlation= PBE
                           (   1   4   3   4   0   0   0)

     celldm(1)=   4.653073  celldm(2)=   0.000000  celldm(3)=   8.122487
     celldm(4)=   0.000000  celldm(5)=   0.000000  celldm(6)=   0.000000

     crystal axes: (cart. coord. in units of alat)
               a(1) = (   1.000000   0.000000   0.000000 )  
               a(2) = (  -0.500000   0.866025   0.000000 )  
               a(3) = (   0.000000   0.000000   8.122487 )  

     reciprocal axes: (cart. coord. in units 2 pi/alat)
               b(1) = (  1.000000  0.577350  0.000000 )  
               b(2) = (  0.000000  1.154701  0.000000 )  
               b(3) = (  0.000000  0.000000  0.123115 )  


     PseudoPot. # 1 for C  read from file:
     ../Pseudo/C.pbe-rrkjus.UPF
     MD5 check sum: 00fb224312de0c5b6853bd333518df6f
     Pseudo is Ultrasoft, Zval =  4.0
     Generated by new atomic code, or converted to UPF format
     Using radial grid of  627 points,  4 beta functions with: 
                l(1) =   0
                l(2) =   0
                l(3) =   1
                l(4) =   1
     Q(r) pseudized with 0 coefficients 


     atomic species   valence    mass     pseudopotential
        C              4.00    12.01070     C ( 1.00)

     24 Sym. Ops., with inversion, found



   Cartesian axes

     site n.     atom                  positions (alat units)
         1           C   tau(   1) = (   0.0000000   0.5773503   4.0612436  )
         2           C   tau(   2) = (   0.5000000   0.2886751   4.0612436  )

     number of k points=   156  Methfessel-Paxton smearing, width (Ry)=  0.0200

     Number of k-points >= 100: set verbosity='high' to print them.

     Dense  grid:    52949 G-vectors     FFT dimensions: (  25,  25, 200)

     Estimated max dynamical RAM per process >       3.20 MB

     Estimated total dynamical RAM >      64.09 MB

     The potential is recalculated from file :
     ./_ph0/2Dgraphene.save/charge-density


     negative rho (up, down):  6.981E-05 0.000E+00
     Starting wfcs are    8 atomic wfcs

     Band Structure Calculation
     Davidson diagonalization with overlap

     ethr =  1.25E-10,  avg # of iterations = 25.0

     total cpu time spent up to now is       78.2 secs

     End of band structure calculation

     Number of k-points >= 100: set verbosity='high' to print the bands.

     the Fermi energy is    -2.3445 ev

     Writing output data file ./_ph0/2Dgraphene.save/

                                                                                

     bravais-lattice index     =            4
     lattice parameter (alat)  =       4.6531  a.u.
     unit-cell volume          =     708.6620 (a.u.)^3
     number of atoms/cell      =            2
     number of atomic types    =            1
     kinetic-energy cut-off    =      90.0000  Ry
     charge density cut-off    =     270.0000  Ry
     convergence threshold     =      1.0E-20
     beta                      =       0.7000
     number of iterations used =            4
     Exchange-correlation= PBE
                           (   1   4   3   4   0   0   0)


     celldm(1)=    4.65307  celldm(2)=    0.00000  celldm(3)=    8.12249
     celldm(4)=    0.00000  celldm(5)=    0.00000  celldm(6)=    0.00000

     crystal axes: (cart. coord. in units of alat)
               a(1) = (  1.0000  0.0000  0.0000 )  
               a(2) = ( -0.5000  0.8660  0.0000 )  
               a(3) = (  0.0000  0.0000  8.1225 )  

     reciprocal axes: (cart. coord. in units 2 pi/alat)
               b(1) = (  1.0000  0.5774  0.0000 )  
               b(2) = (  0.0000  1.1547  0.0000 )  
               b(3) = (  0.0000  0.0000  0.1231 )  


     Atoms inside the unit cell: 

     Cartesian axes

     site n.  atom      mass           positions (alat units)
        1     C   12.0107   tau(    1) = (    0.00000    0.57735    4.06124  )
        2     C   12.0107   tau(    2) = (    0.50000    0.28868    4.06124  )

     Computing dynamical matrix for 
                    q = (   0.0000000   0.3849002   0.0000000 )
 
      4 Sym.Ops. (no q -> -q+G )


     G cutoff =  148.0757  (   2654 G-vectors)     FFT grid: ( 25, 25,200)

     number of k points=   156  Methfessel-Paxton smearing, width (Ry)=  0.0200

     PseudoPot. # 1 for C  read from file:
     ../Pseudo/C.pbe-rrkjus.UPF
     MD5 check sum: 00fb224312de0c5b6853bd333518df6f
     Pseudo is Ultrasoft, Zval =  4.0
     Generated by new atomic code, or converted to UPF format
     Using radial grid of  627 points,  4 beta functions with: 
                l(1) =   0
                l(2) =   0
                l(3) =   1
                l(4) =   1
     Q(r) pseudized with 0 coefficients 


     Mode symmetry, C_2v (mm2)  point group:


     Atomic displacements:
     There are    6 irreducible representations

     Representation     1      1 modes -  To be done

     Representation     2      1 modes -  To be done

     Representation     3      1 modes -  To be done

     Representation     4      1 modes -  To be done

     Representation     5      1 modes -  To be done

     Representation     6      1 modes -  To be done



     Alpha used in Ewald sum =   2.8000
     PHONON       :   5m20.66s CPU   5m51.85s WALL



     Representation #   1 mode #   1

     Self-consistent Calculation

      iter #   1 total cpu time :   354.3 secs   av.it.:   5.5
      thresh= 1.000E-02 alpha_mix =  0.700 |ddv_scf|^2 =  6.569E-06

      iter #   2 total cpu time :   357.5 secs   av.it.:   9.1
      thresh= 2.563E-04 alpha_mix =  0.700 |ddv_scf|^2 =  1.702E-05

      iter #   3 total cpu time :   360.5 secs   av.it.:   8.2
      thresh= 4.125E-04 alpha_mix =  0.700 |ddv_scf|^2 =  3.889E-08

      iter #   4 total cpu time :   363.8 secs   av.it.:   9.0
      thresh= 1.972E-05 alpha_mix =  0.700 |ddv_scf|^2 =  3.417E-09

      iter #   5 total cpu time :   366.9 secs   av.it.:   9.0
      thresh= 5.845E-06 alpha_mix =  0.700 |ddv_scf|^2 =  1.467E-10

      iter #   6 total cpu time :   370.0 secs   av.it.:   8.9
      thresh= 1.211E-06 alpha_mix =  0.700 |ddv_scf|^2 =  4.302E-13

      iter #   7 total cpu time :   374.0 secs   av.it.:   8.9
      thresh= 6.559E-08 alpha_mix =  0.700 |ddv_scf|^2 =  1.837E-14

      iter #   8 total cpu time :   377.6 secs   av.it.:   9.0
      thresh= 1.355E-08 alpha_mix =  0.700 |ddv_scf|^2 =  2.582E-14

      iter #   9 total cpu time :   380.6 secs   av.it.:   8.2
      thresh= 1.607E-08 alpha_mix =  0.700 |ddv_scf|^2 =  3.120E-16

      iter #  10 total cpu time :   383.7 secs   av.it.:   8.9
      thresh= 1.766E-09 alpha_mix =  0.700 |ddv_scf|^2 =  2.990E-17

      iter #  11 total cpu time :   387.3 secs   av.it.:   9.1
      thresh= 5.468E-10 alpha_mix =  0.700 |ddv_scf|^2 =  4.968E-18

      iter #  12 total cpu time :   390.7 secs   av.it.:   9.1
      thresh= 2.229E-10 alpha_mix =  0.700 |ddv_scf|^2 =  3.791E-19

      iter #  13 total cpu time :   394.3 secs   av.it.:   9.1
      thresh= 6.157E-11 alpha_mix =  0.700 |ddv_scf|^2 =  7.392E-20

      iter #  14 total cpu time :   397.7 secs   av.it.:   8.9
      thresh= 2.719E-11 alpha_mix =  0.700 |ddv_scf|^2 =  7.060E-22

     End of self-consistent calculation

     Convergence has been achieved 


     Representation #   2 mode #   2

     Self-consistent Calculation

      iter #   1 total cpu time :   400.4 secs   av.it.:   5.5
      thresh= 1.000E-02 alpha_mix =  0.700 |ddv_scf|^2 =  6.569E-06

      iter #   2 total cpu time :   403.7 secs   av.it.:   9.1
      thresh= 2.563E-04 alpha_mix =  0.700 |ddv_scf|^2 =  1.702E-05

      iter #   3 total cpu time :   406.8 secs   av.it.:   8.2
      thresh= 4.125E-04 alpha_mix =  0.700 |ddv_scf|^2 =  3.889E-08

      iter #   4 total cpu time :   410.0 secs   av.it.:   9.0
      thresh= 1.972E-05 alpha_mix =  0.700 |ddv_scf|^2 =  3.417E-09

      iter #   5 total cpu time :   413.6 secs   av.it.:   9.0
      thresh= 5.845E-06 alpha_mix =  0.700 |ddv_scf|^2 =  1.467E-10

      iter #   6 total cpu time :   417.6 secs   av.it.:   8.9
      thresh= 1.211E-06 alpha_mix =  0.700 |ddv_scf|^2 =  4.302E-13

      iter #   7 total cpu time :   420.8 secs   av.it.:   8.9
      thresh= 6.559E-08 alpha_mix =  0.700 |ddv_scf|^2 =  1.837E-14

      iter #   8 total cpu time :   424.4 secs   av.it.:   9.0
      thresh= 1.355E-08 alpha_mix =  0.700 |ddv_scf|^2 =  2.582E-14

      iter #   9 total cpu time :   427.4 secs   av.it.:   8.2
      thresh= 1.607E-08 alpha_mix =  0.700 |ddv_scf|^2 =  3.120E-16

      iter #  10 total cpu time :   431.4 secs   av.it.:   8.9
      thresh= 1.766E-09 alpha_mix =  0.700 |ddv_scf|^2 =  2.990E-17

      iter #  11 total cpu time :   435.3 secs   av.it.:   9.1
      thresh= 5.468E-10 alpha_mix =  0.700 |ddv_scf|^2 =  4.968E-18

      iter #  12 total cpu time :   438.5 secs   av.it.:   9.1
      thresh= 2.229E-10 alpha_mix =  0.700 |ddv_scf|^2 =  3.791E-19

      iter #  13 total cpu time :   441.6 secs   av.it.:   9.1
      thresh= 6.157E-11 alpha_mix =  0.700 |ddv_scf|^2 =  7.392E-20

      iter #  14 total cpu time :   444.7 secs   av.it.:   8.9
      thresh= 2.719E-11 alpha_mix =  0.700 |ddv_scf|^2 =  7.060E-22

     End of self-consistent calculation

     Convergence has been achieved 


     Representation #   3 mode #   3

     Self-consistent Calculation

      iter #   1 total cpu time :   447.2 secs   av.it.:   4.9
      thresh= 1.000E-02 alpha_mix =  0.700 |ddv_scf|^2 =  1.658E-07

      iter #   2 total cpu time :   450.7 secs   av.it.:   9.1
      thresh= 4.071E-05 alpha_mix =  0.700 |ddv_scf|^2 =  5.978E-09

      iter #   3 total cpu time :   453.6 secs   av.it.:   8.3
      thresh= 7.732E-06 alpha_mix =  0.700 |ddv_scf|^2 =  4.095E-10

      iter #   4 total cpu time :   456.5 secs   av.it.:   7.8
      thresh= 2.023E-06 alpha_mix =  0.700 |ddv_scf|^2 =  1.803E-13

      iter #   5 total cpu time :   459.6 secs   av.it.:   9.1
      thresh= 4.247E-08 alpha_mix =  0.700 |ddv_scf|^2 =  3.606E-15

      iter #   6 total cpu time :   462.6 secs   av.it.:   8.3
      thresh= 6.005E-09 alpha_mix =  0.700 |ddv_scf|^2 =  7.279E-18

      iter #   7 total cpu time :   465.7 secs   av.it.:   9.0
      thresh= 2.698E-10 alpha_mix =  0.700 |ddv_scf|^2 =  2.019E-19

      iter #   8 total cpu time :   469.0 secs   av.it.:   8.9
      thresh= 4.494E-11 alpha_mix =  0.700 |ddv_scf|^2 =  4.941E-21

     End of self-consistent calculation

     Convergence has been achieved 


     Representation #   4 mode #   4

     Self-consistent Calculation

      iter #   1 total cpu time :   471.5 secs   av.it.:   4.9
      thresh= 1.000E-02 alpha_mix =  0.700 |ddv_scf|^2 =  1.658E-07

      iter #   2 total cpu time :   474.7 secs   av.it.:   9.1
      thresh= 4.071E-05 alpha_mix =  0.700 |ddv_scf|^2 =  5.978E-09

      iter #   3 total cpu time :   477.6 secs   av.it.:   8.3
      thresh= 7.732E-06 alpha_mix =  0.700 |ddv_scf|^2 =  4.095E-10

      iter #   4 total cpu time :   480.4 secs   av.it.:   7.8
      thresh= 2.023E-06 alpha_mix =  0.700 |ddv_scf|^2 =  1.803E-13

      iter #   5 total cpu time :   485.0 secs   av.it.:   9.1
      thresh= 4.247E-08 alpha_mix =  0.700 |ddv_scf|^2 =  3.606E-15

      iter #   6 total cpu time :   489.9 secs   av.it.:   8.3
      thresh= 6.005E-09 alpha_mix =  0.700 |ddv_scf|^2 =  7.279E-18

      iter #   7 total cpu time :   493.0 secs   av.it.:   9.0
      thresh= 2.698E-10 alpha_mix =  0.700 |ddv_scf|^2 =  2.019E-19

      iter #   8 total cpu time :   496.1 secs   av.it.:   8.9
      thresh= 4.494E-11 alpha_mix =  0.700 |ddv_scf|^2 =  4.941E-21

     End of self-consistent calculation

     Convergence has been achieved 


     Representation #   5 mode #   5

     Self-consistent Calculation

      iter #   1 total cpu time :   498.6 secs   av.it.:   5.3
      thresh= 1.000E-02 alpha_mix =  0.700 |ddv_scf|^2 =  6.061E-07

      iter #   2 total cpu time :   501.9 secs   av.it.:   9.0
      thresh= 7.786E-05 alpha_mix =  0.700 |ddv_scf|^2 =  4.319E-08

      iter #   3 total cpu time :   505.0 secs   av.it.:   8.8
      thresh= 2.078E-05 alpha_mix =  0.700 |ddv_scf|^2 =  1.960E-09

      iter #   4 total cpu time :   507.9 secs   av.it.:   7.8
      thresh= 4.427E-06 alpha_mix =  0.700 |ddv_scf|^2 =  1.196E-12

      iter #   5 total cpu time :   510.9 secs   av.it.:   8.3
      thresh= 1.094E-07 alpha_mix =  0.700 |ddv_scf|^2 =  1.797E-14

      iter #   6 total cpu time :   513.9 secs   av.it.:   8.3
      thresh= 1.341E-08 alpha_mix =  0.700 |ddv_scf|^2 =  1.361E-17

      iter #   7 total cpu time :   517.1 secs   av.it.:   9.0
      thresh= 3.690E-10 alpha_mix =  0.700 |ddv_scf|^2 =  1.017E-18

      iter #   8 total cpu time :   520.4 secs   av.it.:   9.1
      thresh= 1.009E-10 alpha_mix =  0.700 |ddv_scf|^2 =  2.456E-20

      iter #   9 total cpu time :   523.5 secs   av.it.:   8.8
      thresh= 1.567E-11 alpha_mix =  0.700 |ddv_scf|^2 =  1.543E-21

     End of self-consistent calculation

     Convergence has been achieved 


     Representation #   6 mode #   6

     Self-consistent Calculation

      iter #   1 total cpu time :   526.1 secs   av.it.:   5.3
      thresh= 1.000E-02 alpha_mix =  0.700 |ddv_scf|^2 =  6.061E-07

      iter #   2 total cpu time :   530.6 secs   av.it.:   9.0
      thresh= 7.786E-05 alpha_mix =  0.700 |ddv_scf|^2 =  4.319E-08

      iter #   3 total cpu time :   533.6 secs   av.it.:   8.8
      thresh= 2.078E-05 alpha_mix =  0.700 |ddv_scf|^2 =  1.960E-09

      iter #   4 total cpu time :   536.5 secs   av.it.:   7.8
      thresh= 4.427E-06 alpha_mix =  0.700 |ddv_scf|^2 =  1.196E-12

      iter #   5 total cpu time :   539.8 secs   av.it.:   8.3
      thresh= 1.094E-07 alpha_mix =  0.700 |ddv_scf|^2 =  1.797E-14

      iter #   6 total cpu time :   542.9 secs   av.it.:   8.3
      thresh= 1.341E-08 alpha_mix =  0.700 |ddv_scf|^2 =  1.361E-17

      iter #   7 total cpu time :   546.4 secs   av.it.:   9.0
      thresh= 3.690E-10 alpha_mix =  0.700 |ddv_scf|^2 =  1.017E-18

      iter #   8 total cpu time :   550.0 secs   av.it.:   9.1
      thresh= 1.009E-10 alpha_mix =  0.700 |ddv_scf|^2 =  2.456E-20

      iter #   9 total cpu time :   554.2 secs   av.it.:   8.8
      thresh= 1.567E-11 alpha_mix =  0.700 |ddv_scf|^2 =  1.543E-21

     End of self-consistent calculation

     Convergence has been achieved 
 
     Number of q in the star =    6
     List of q in the star:
          1   0.000000000   0.384900179   0.000000000
          2   0.000000000  -0.384900179   0.000000000
          3  -0.333333333   0.192450090   0.000000000
          4  -0.333333333  -0.192450090   0.000000000
          5   0.333333333  -0.192450090   0.000000000
          6   0.333333333   0.192450090   0.000000000

     Diagonalizing the dynamical matrix

     q = (    0.000000000   0.384900179   0.000000000 ) 

 **************************************************************************
     freq (    1) =       8.456344 [THz] =     282.073265 [cm-1]
     freq (    2) =      16.612440 [THz] =     554.131368 [cm-1]
     freq (    3) =      23.225574 [THz] =     774.721766 [cm-1]
     freq (    4) =      30.050592 [THz] =    1002.379870 [cm-1]
     freq (    5) =      42.772501 [THz] =    1426.737049 [cm-1]
     freq (    6) =      45.963200 [THz] =    1533.167327 [cm-1]
 **************************************************************************

     Mode symmetry, C_2v (mm2)  point group:

     freq (   1-   1) =        282.1  [cm-1]   --> B_2  D_4  S_4      
     freq (   2-   2) =        554.1  [cm-1]   --> B_1  D_3  S_3      
     freq (   3-   3) =        774.7  [cm-1]   --> B_2  D_4  S_4      
     freq (   4-   4) =       1002.4  [cm-1]   --> A_1  D_1  S_1      
     freq (   5-   5) =       1426.7  [cm-1]   --> B_1  D_3  S_3      
     freq (   6-   6) =       1533.2  [cm-1]   --> A_1  D_1  S_1      

     Calculation of q =    0.0000000  -0.5773503   0.0000000
 
     Parallelization info
     --------------------
     sticks:   dense  smooth     PW     G-vecs:    dense   smooth      PW
     Min          20      20      9                 2643     2643     799
     Max          23      23     10                 2654     2654     821
     Sum         409     409    187                52949    52949   16195
 


     bravais-lattice index     =            4
     lattice parameter (alat)  =       4.6531  a.u.
     unit-cell volume          =     708.6620 (a.u.)^3
     number of atoms/cell      =            2
     number of atomic types    =            1
     number of electrons       =         8.00
     number of Kohn-Sham states=            8
     kinetic-energy cutoff     =      90.0000  Ry
     charge density cutoff     =     270.0000  Ry
     Exchange-correlation= PBE
                           (   1   4   3   4   0   0   0)

     celldm(1)=   4.653073  celldm(2)=   0.000000  celldm(3)=   8.122487
     celldm(4)=   0.000000  celldm(5)=   0.000000  celldm(6)=   0.000000

     crystal axes: (cart. coord. in units of alat)
               a(1) = (   1.000000   0.000000   0.000000 )  
               a(2) = (  -0.500000   0.866025   0.000000 )  
               a(3) = (   0.000000   0.000000   8.122487 )  

     reciprocal axes: (cart. coord. in units 2 pi/alat)
               b(1) = (  1.000000  0.577350  0.000000 )  
               b(2) = (  0.000000  1.154701  0.000000 )  
               b(3) = (  0.000000  0.000000  0.123115 )  


     PseudoPot. # 1 for C  read from file:
     ../Pseudo/C.pbe-rrkjus.UPF
     MD5 check sum: 00fb224312de0c5b6853bd333518df6f
     Pseudo is Ultrasoft, Zval =  4.0
     Generated by new atomic code, or converted to UPF format
     Using radial grid of  627 points,  4 beta functions with: 
                l(1) =   0
                l(2) =   0
                l(3) =   1
                l(4) =   1
     Q(r) pseudized with 0 coefficients 


     atomic species   valence    mass     pseudopotential
        C              4.00    12.01070     C ( 1.00)

     24 Sym. Ops., with inversion, found



   Cartesian axes

     site n.     atom                  positions (alat units)
         1           C   tau(   1) = (   0.0000000   0.5773503   4.0612436  )
         2           C   tau(   2) = (   0.5000000   0.2886751   4.0612436  )

     number of k points=    86  Methfessel-Paxton smearing, width (Ry)=  0.0200
                       cart. coord. in units 2pi/alat
        k(    1) = (   0.0000000   0.0000000   0.0000000), wk =   0.0138889
        k(    2) = (   0.0000000  -0.5773503   0.0000000), wk =   0.0000000
        k(    3) = (   0.0000000   0.0962250   0.0000000), wk =   0.0277778
        k(    4) = (   0.0000000  -0.4811252   0.0000000), wk =   0.0000000
        k(    5) = (   0.0000000   0.1924501   0.0000000), wk =   0.0277778
        k(    6) = (   0.0000000  -0.3849002   0.0000000), wk =   0.0000000
        k(    7) = (   0.0000000   0.2886751   0.0000000), wk =   0.0277778
        k(    8) = (   0.0000000  -0.2886751   0.0000000), wk =   0.0000000
        k(    9) = (   0.0000000   0.3849002   0.0000000), wk =   0.0277778
        k(   10) = (   0.0000000  -0.1924501   0.0000000), wk =   0.0000000
        k(   11) = (   0.0000000   0.4811252   0.0000000), wk =   0.0277778
        k(   12) = (   0.0000000  -0.0962250   0.0000000), wk =   0.0000000
        k(   13) = (   0.0000000  -0.5773503   0.0000000), wk =   0.0138889
        k(   14) = (   0.0000000  -1.1547005   0.0000000), wk =   0.0000000
        k(   15) = (   0.0833333   0.1443376   0.0000000), wk =   0.0555556
        k(   16) = (   0.0833333  -0.4330127   0.0000000), wk =   0.0000000
        k(   17) = (   0.0833333   0.2405626   0.0000000), wk =   0.0555556
        k(   18) = (   0.0833333  -0.3367877   0.0000000), wk =   0.0000000
        k(   19) = (   0.0833333   0.3367877   0.0000000), wk =   0.0555556
        k(   20) = (   0.0833333  -0.2405626   0.0000000), wk =   0.0000000
        k(   21) = (   0.0833333   0.4330127   0.0000000), wk =   0.0555556
        k(   22) = (   0.0833333  -0.1443376   0.0000000), wk =   0.0000000
        k(   23) = (   0.0833333   0.5292377   0.0000000), wk =   0.0555556
        k(   24) = (   0.0833333  -0.0481125   0.0000000), wk =   0.0000000
        k(   25) = (   0.1666667   0.2886751   0.0000000), wk =   0.0555556
        k(   26) = (   0.1666667  -0.2886751   0.0000000), wk =   0.0000000
        k(   27) = (   0.1666667   0.3849002   0.0000000), wk =   0.0555556
        k(   28) = (   0.1666667  -0.1924501   0.0000000), wk =   0.0000000
        k(   29) = (   0.1666667   0.4811252   0.0000000), wk =   0.0555556
        k(   30) = (   0.1666667  -0.0962250   0.0000000), wk =   0.0000000
        k(   31) = (   0.1666667   0.5773503   0.0000000), wk =   0.0277778
        k(   32) = (   0.1666667   0.0000000   0.0000000), wk =   0.0000000
        k(   33) = (   0.2500000   0.4330127   0.0000000), wk =   0.0555556
        k(   34) = (   0.2500000  -0.1443376   0.0000000), wk =   0.0000000
        k(   35) = (   0.2500000   0.5292377   0.0000000), wk =   0.0555556
        k(   36) = (   0.2500000  -0.0481125   0.0000000), wk =   0.0000000
        k(   37) = (   0.3333333   0.5773503   0.0000000), wk =   0.0277778
        k(   38) = (   0.3333333   0.0000000   0.0000000), wk =   0.0000000
        k(   39) = (   0.0833333  -0.0481125   0.0000000), wk =   0.0555556
        k(   40) = (   0.0833333  -0.6254628   0.0000000), wk =   0.0000000
        k(   41) = (   0.1666667  -0.0962250   0.0000000), wk =   0.0555556
        k(   42) = (   0.1666667  -0.6735753   0.0000000), wk =   0.0000000
        k(   43) = (   0.2500000  -0.1443376   0.0000000), wk =   0.0555556
        k(   44) = (   0.2500000  -0.7216878   0.0000000), wk =   0.0000000
        k(   45) = (   0.3333333  -0.1924501   0.0000000), wk =   0.0555556
        k(   46) = (   0.3333333  -0.7698004   0.0000000), wk =   0.0000000
        k(   47) = (   0.4166667  -0.2405626   0.0000000), wk =   0.0555556
        k(   48) = (   0.4166667  -0.8179129   0.0000000), wk =   0.0000000
        k(   49) = (  -0.5000000   0.2886751   0.0000000), wk =   0.0277778
        k(   50) = (  -0.5000000  -0.2886751   0.0000000), wk =   0.0000000
        k(   51) = (  -0.1666667   0.0000000   0.0000000), wk =   0.0277778
        k(   52) = (  -0.1666667  -0.5773503   0.0000000), wk =   0.0000000
        k(   53) = (   0.1666667  -0.1924501   0.0000000), wk =   0.0555556
        k(   54) = (   0.1666667  -0.7698004   0.0000000), wk =   0.0000000
        k(   55) = (  -0.2500000  -0.0481125   0.0000000), wk =   0.0555556
        k(   56) = (  -0.2500000  -0.6254628   0.0000000), wk =   0.0000000
        k(   57) = (   0.2500000  -0.2405626   0.0000000), wk =   0.0555556
        k(   58) = (   0.2500000  -0.8179129   0.0000000), wk =   0.0000000
        k(   59) = (  -0.3333333  -0.0962250   0.0000000), wk =   0.0555556
        k(   60) = (  -0.3333333  -0.6735753   0.0000000), wk =   0.0000000
        k(   61) = (   0.3333333  -0.2886751   0.0000000), wk =   0.0555556
        k(   62) = (   0.3333333  -0.8660254   0.0000000), wk =   0.0000000
        k(   63) = (  -0.4166667  -0.1443376   0.0000000), wk =   0.0555556
        k(   64) = (  -0.4166667  -0.7216878   0.0000000), wk =   0.0000000
        k(   65) = (   0.4166667  -0.3367877   0.0000000), wk =   0.0555556
        k(   66) = (   0.4166667  -0.9141379   0.0000000), wk =   0.0000000
        k(   67) = (  -0.5000000  -0.1924501   0.0000000), wk =   0.0555556
        k(   68) = (  -0.5000000  -0.7698004   0.0000000), wk =   0.0000000
        k(   69) = (  -0.3333333   0.0000000   0.0000000), wk =   0.0277778
        k(   70) = (  -0.3333333  -0.5773503   0.0000000), wk =   0.0000000
        k(   71) = (   0.2500000  -0.3367877   0.0000000), wk =   0.0555556
        k(   72) = (   0.2500000  -0.9141379   0.0000000), wk =   0.0000000
        k(   73) = (  -0.4166667  -0.0481125   0.0000000), wk =   0.0555556
        k(   74) = (  -0.4166667  -0.6254628   0.0000000), wk =   0.0000000
        k(   75) = (   0.3333333  -0.3849002   0.0000000), wk =   0.0555556
        k(   76) = (   0.3333333  -0.9622504   0.0000000), wk =   0.0000000
        k(   77) = (  -0.5000000  -0.0962250   0.0000000), wk =   0.0555556
        k(   78) = (  -0.5000000  -0.6735753   0.0000000), wk =   0.0000000
        k(   79) = (   0.4166667  -0.4330127   0.0000000), wk =   0.0555556
        k(   80) = (   0.4166667  -1.0103630   0.0000000), wk =   0.0000000
        k(   81) = (  -0.5000000   0.0000000   0.0000000), wk =   0.0277778
        k(   82) = (  -0.5000000  -0.5773503   0.0000000), wk =   0.0000000
        k(   83) = (   0.3333333  -0.4811252   0.0000000), wk =   0.0555556
        k(   84) = (   0.3333333  -1.0584755   0.0000000), wk =   0.0000000
        k(   85) = (  -0.5833333  -0.0481125   0.0000000), wk =   0.0555556
        k(   86) = (  -0.5833333  -0.6254628   0.0000000), wk =   0.0000000

     Dense  grid:    52949 G-vectors     FFT dimensions: (  25,  25, 200)

     Estimated max dynamical RAM per process >       3.21 MB

     Estimated total dynamical RAM >      64.21 MB

     The potential is recalculated from file :
     ./_ph0/2Dgraphene.save/charge-density


     negative rho (up, down):  6.981E-05 0.000E+00
     Starting wfcs are    8 atomic wfcs

     Band Structure Calculation
     Davidson diagonalization with overlap

     ethr =  1.25E-10,  avg # of iterations = 24.5

     total cpu time spent up to now is      102.0 secs

     End of band structure calculation

          k = 0.0000 0.0000 0.0000 ( 10069 PWs)   bands (ev):

   -21.8707  -9.9838  -5.4204  -5.4204   0.8987   1.6461   1.8496   2.8099

          k = 0.0000-0.5774 0.0000 ( 10232 PWs)   bands (ev):

   -16.6178 -15.6032  -8.8010  -4.7106  -0.6634   5.0869   8.7793   8.9302

          k = 0.0000 0.0962 0.0000 ( 10121 PWs)   bands (ev):

   -21.7066  -9.7874  -6.0675  -5.7589   1.1222   1.8727   2.0785   3.0366

          k = 0.0000-0.4811 0.0000 ( 10228 PWs)   bands (ev):

   -17.8882 -14.0909  -8.6386  -5.5564   0.4358   5.1627   6.4722   7.2873

          k = 0.0000 0.1925 0.0000 ( 10132 PWs)   bands (ev):

   -21.2161  -9.2035  -7.6986  -6.5517   1.7926   2.5516   2.7652   3.7154

          k = 0.0000-0.3849 0.0000 ( 10216 PWs)   bands (ev):

   -19.2855 -11.9915  -8.1655  -6.9812   2.5735   4.4552   5.2782   5.4007

          k = 0.0000 0.2887 0.0000 ( 10194 PWs)   bands (ev):

   -20.4051  -9.7915  -8.2513  -7.4318   2.9077   3.6695   3.9095   4.7650

          k = 0.0000-0.2887 0.0000 ( 10194 PWs)   bands (ev):

   -20.4051  -9.7915  -8.2513  -7.4318   2.9077   3.6695   3.9095   4.7650

          k = 0.0000 0.3849 0.0000 ( 10216 PWs)   bands (ev):

   -19.2855 -11.9915  -8.1655  -6.9812   2.5735   4.4552   5.2782   5.4007

          k = 0.0000-0.1925 0.0000 ( 10132 PWs)   bands (ev):

   -21.2161  -9.2035  -7.6986  -6.5517   1.7926   2.5516   2.7652   3.7154

          k = 0.0000 0.4811 0.0000 ( 10228 PWs)   bands (ev):

   -17.8882 -14.0909  -8.6386  -5.5564   0.4358   5.1627   6.4722   7.2873

          k = 0.0000-0.0962 0.0000 ( 10121 PWs)   bands (ev):

   -21.7066  -9.7874  -6.0675  -5.7589   1.1222   1.8727   2.0785   3.0366

          k = 0.0000-0.5774 0.0000 ( 10232 PWs)   bands (ev):

   -16.6178 -15.6032  -8.8010  -4.7106  -0.6634   5.0869   8.7793   8.9302

          k = 0.0000-1.1547 0.0000 ( 10069 PWs)   bands (ev):

   -21.8707  -9.9838  -5.4204  -5.4204   0.8987   1.6461   1.8496   2.8099

          k = 0.0833 0.1443 0.0000 ( 10131 PWs)   bands (ev):

   -21.3793  -9.3971  -7.0964  -6.4363   1.5694   2.3256   2.5364   3.4895

          k = 0.0833-0.4330 0.0000 ( 10220 PWs)   bands (ev):

   -18.5017 -12.9904  -8.9545  -6.1287   1.3840   5.5476   6.0147   6.3809

          k = 0.0833 0.2406 0.0000 ( 10192 PWs)   bands (ev):

   -20.7286  -8.8005  -8.6279  -7.4340   2.4630   3.2284   3.4521   4.3917

          k = 0.0833-0.3368 0.0000 ( 10209 PWs)   bands (ev):

   -19.7631 -10.8696  -8.3199  -7.5103   3.5861   3.7988   4.6005   4.8251

          k = 0.0833 0.3368 0.0000 ( 10209 PWs)   bands (ev):

   -19.7631 -10.8696  -8.3199  -7.5103   3.5861   3.7988   4.6005   4.8251

          k = 0.0833-0.2406 0.0000 ( 10192 PWs)   bands (ev):

   -20.7286  -8.8005  -8.6279  -7.4340   2.4630   3.2284   3.4521   4.3917

          k = 0.0833 0.4330 0.0000 ( 10220 PWs)   bands (ev):

   -18.5017 -12.9904  -8.9545  -6.1287   1.3840   5.5476   6.0147   6.3809

          k = 0.0833-0.1443 0.0000 ( 10131 PWs)   bands (ev):

   -21.3793  -9.3971  -7.0964  -6.4363   1.5694   2.3256   2.5364   3.4895

          k = 0.0833 0.5292 0.0000 ( 10235 PWs)   bands (ev):

   -17.0193 -14.9334  -9.2828  -4.8175  -0.3869   5.8203   7.7723   8.9443

          k = 0.0833-0.0481 0.0000 ( 10121 PWs)   bands (ev):

   -21.7066  -9.7874  -6.0675  -5.7589   1.1222   1.8727   2.0785   3.0366

          k = 0.1667 0.2887 0.0000 ( 10239 PWs)   bands (ev):

   -19.9234 -10.1258  -8.7954  -7.6893   3.5784   4.0436   4.3514   4.5968

          k = 0.1667-0.2887 0.0000 ( 10239 PWs)   bands (ev):

   -19.9234 -10.1258  -8.7954  -7.6893   3.5784   4.0436   4.3514   4.5968

          k = 0.1667 0.3849 0.0000 ( 10251 PWs)   bands (ev):

   -18.8148 -11.8507  -9.8501  -6.4344   2.0938   5.1307   5.9052   6.1986

          k = 0.1667-0.1925 0.0000 ( 10192 PWs)   bands (ev):

   -20.7286  -8.8005  -8.6279  -7.4340   2.4630   3.2284   3.4521   4.3917

          k = 0.1667 0.4811 0.0000 ( 10259 PWs)   bands (ev):

   -17.4375 -13.7616 -10.4245  -5.0056   0.1792   7.0915   7.7251   7.8205

          k = 0.1667-0.0962 0.0000 ( 10132 PWs)   bands (ev):

   -21.2161  -9.2035  -7.6986  -6.5517   1.7926   2.5516   2.7652   3.7154

          k = 0.1667 0.5774 0.0000 ( 10243 PWs)   bands (ev):

   -16.1972 -15.2020 -10.6089  -4.1117  -0.8903   7.6193   9.3403   9.5392

          k = 0.1667 0.0000 0.0000 ( 10131 PWs)   bands (ev):

   -21.3793  -9.3971  -7.0964  -6.4363   1.5694   2.3256   2.5364   3.4895

          k = 0.2500 0.4330 0.0000 ( 10263 PWs)   bands (ev):

   -17.5856 -12.8814 -11.3347  -5.0898   0.4773   6.8832   8.0277   9.3657

          k = 0.2500-0.1443 0.0000 ( 10194 PWs)   bands (ev):

   -20.4051  -9.7915  -8.2513  -7.4318   2.9077   3.6695   3.9095   4.7650

          k = 0.2500 0.5292 0.0000 ( 10249 PWs)   bands (ev):

   -16.1611 -14.3044 -12.0408  -3.7022  -1.0448   8.5496   8.9795   9.8743

          k = 0.2500-0.0481 0.0000 ( 10192 PWs)   bands (ev):

   -20.7286  -8.8005  -8.6279  -7.4340   2.4630   3.2284   3.4521   4.3917

          k = 0.3333 0.5774 0.0000 ( 10245 PWs)   bands (ev):

   -14.9417 -14.9417 -12.9432  -2.3445  -2.3445  10.5466  10.5466  11.1628

          k = 0.3333 0.0000 0.0000 ( 10239 PWs)   bands (ev):

   -19.9234 -10.1258  -8.7954  -7.6893   3.5784   4.0436   4.3514   4.5968

          k = 0.0833-0.0481 0.0000 ( 10121 PWs)   bands (ev):

   -21.7066  -9.7874  -6.0675  -5.7589   1.1222   1.8727   2.0785   3.0366

          k = 0.0833-0.6255 0.0000 ( 10235 PWs)   bands (ev):

   -17.0193 -14.9334  -9.2828  -4.8175  -0.3869   5.8203   7.7723   8.9443

          k = 0.1667-0.0962 0.0000 ( 10132 PWs)   bands (ev):

   -21.2161  -9.2035  -7.6986  -6.5517   1.7926   2.5516   2.7652   3.7154

          k = 0.1667-0.6736 0.0000 ( 10259 PWs)   bands (ev):

   -17.4375 -13.7616 -10.4245  -5.0056   0.1792   7.0915   7.7251   7.8205

          k = 0.2500-0.1443 0.0000 ( 10194 PWs)   bands (ev):

   -20.4051  -9.7915  -8.2513  -7.4318   2.9077   3.6695   3.9095   4.7650

          k = 0.2500-0.7217 0.0000 ( 10263 PWs)   bands (ev):

   -17.5856 -12.8814 -11.3347  -5.0898   0.4773   6.8832   8.0277   9.3657

          k = 0.3333-0.1925 0.0000 ( 10216 PWs)   bands (ev):

   -19.2855 -11.9915  -8.1655  -6.9812   2.5735   4.4552   5.2782   5.4007

          k = 0.3333-0.7698 0.0000 ( 10259 PWs)   bands (ev):

   -17.4375 -13.7616 -10.4245  -5.0056   0.1792   7.0915   7.7251   7.8205

          k = 0.4167-0.2406 0.0000 ( 10228 PWs)   bands (ev):

   -17.8882 -14.0909  -8.6386  -5.5564   0.4358   5.1627   6.4722   7.2873

          k = 0.4167-0.8179 0.0000 ( 10235 PWs)   bands (ev):

   -17.0193 -14.9334  -9.2828  -4.8175  -0.3869   5.8203   7.7723   8.9443

          k =-0.5000 0.2887 0.0000 ( 10232 PWs)   bands (ev):

   -16.6178 -15.6032  -8.8010  -4.7106  -0.6634   5.0869   8.7793   8.9302

          k =-0.5000-0.2887 0.0000 ( 10232 PWs)   bands (ev):

   -16.6178 -15.6032  -8.8010  -4.7106  -0.6634   5.0869   8.7793   8.9302

          k =-0.1667 0.0000 0.0000 ( 10131 PWs)   bands (ev):

   -21.3793  -9.3971  -7.0964  -6.4363   1.5694   2.3256   2.5364   3.4895

          k =-0.1667-0.5774 0.0000 ( 10243 PWs)   bands (ev):

   -16.1972 -15.2020 -10.6089  -4.1117  -0.8903   7.6193   9.3403   9.5392

          k = 0.1667-0.1925 0.0000 ( 10192 PWs)   bands (ev):

   -20.7286  -8.8005  -8.6279  -7.4340   2.4630   3.2284   3.4521   4.3917

          k = 0.1667-0.7698 0.0000 ( 10251 PWs)   bands (ev):

   -18.8148 -11.8507  -9.8501  -6.4344   2.0938   5.1307   5.9052   6.1986

          k =-0.2500-0.0481 0.0000 ( 10192 PWs)   bands (ev):

   -20.7286  -8.8005  -8.6279  -7.4340   2.4630   3.2284   3.4521   4.3917

          k =-0.2500-0.6255 0.0000 ( 10249 PWs)   bands (ev):

   -16.1611 -14.3044 -12.0408  -3.7022  -1.0448   8.5496   8.9795   9.8743

          k = 0.2500-0.2406 0.0000 ( 10209 PWs)   bands (ev):

   -19.7631 -10.8696  -8.3199  -7.5103   3.5861   3.7988   4.6005   4.8251

          k = 0.2500-0.8179 0.0000 ( 10251 PWs)   bands (ev):

   -18.8148 -11.8507  -9.8501  -6.4344   2.0938   5.1307   5.9052   6.1986

          k =-0.3333-0.0962 0.0000 ( 10209 PWs)   bands (ev):

   -19.7631 -10.8696  -8.3199  -7.5103   3.5861   3.7988   4.6005   4.8251

          k =-0.3333-0.6736 0.0000 ( 10249 PWs)   bands (ev):

   -16.1611 -14.3044 -12.0408  -3.7022  -1.0448   8.5496   8.9795   9.8743

          k = 0.3333-0.2887 0.0000 ( 10220 PWs)   bands (ev):

   -18.5017 -12.9904  -8.9545  -6.1287   1.3840   5.5476   6.0147   6.3809

          k = 0.3333-0.8660 0.0000 ( 10220 PWs)   bands (ev):

   -18.5017 -12.9904  -8.9545  -6.1287   1.3840   5.5476   6.0147   6.3809

          k =-0.4167-0.1443 0.0000 ( 10220 PWs)   bands (ev):

   -18.5017 -12.9904  -8.9545  -6.1287   1.3840   5.5476   6.0147   6.3809

          k =-0.4167-0.7217 0.0000 ( 10243 PWs)   bands (ev):

   -16.1972 -15.2020 -10.6089  -4.1117  -0.8903   7.6193   9.3403   9.5392

          k = 0.4167-0.3368 0.0000 ( 10235 PWs)   bands (ev):

   -17.0193 -14.9334  -9.2828  -4.8175  -0.3869   5.8203   7.7723   8.9443

          k = 0.4167-0.9141 0.0000 ( 10228 PWs)   bands (ev):

   -17.8882 -14.0909  -8.6386  -5.5564   0.4358   5.1627   6.4722   7.2873

          k =-0.5000-0.1925 0.0000 ( 10235 PWs)   bands (ev):

   -17.0193 -14.9334  -9.2828  -4.8175  -0.3869   5.8203   7.7723   8.9443

          k =-0.5000-0.7698 0.0000 ( 10235 PWs)   bands (ev):

   -17.0193 -14.9334  -9.2828  -4.8175  -0.3869   5.8203   7.7723   8.9443

          k =-0.3333 0.0000 0.0000 ( 10239 PWs)   bands (ev):

   -19.9234 -10.1258  -8.7954  -7.6893   3.5784   4.0436   4.3514   4.5968

          k =-0.3333-0.5774 0.0000 ( 10245 PWs)   bands (ev):

   -14.9417 -14.9417 -12.9432  -2.3445  -2.3445  10.5466  10.5466  11.1628

          k = 0.2500-0.3368 0.0000 ( 10251 PWs)   bands (ev):

   -18.8148 -11.8507  -9.8501  -6.4344   2.0938   5.1307   5.9052   6.1986

          k = 0.2500-0.9141 0.0000 ( 10209 PWs)   bands (ev):

   -19.7631 -10.8696  -8.3199  -7.5103   3.5861   3.7988   4.6005   4.8251

          k =-0.4167-0.0481 0.0000 ( 10251 PWs)   bands (ev):

   -18.8148 -11.8507  -9.8501  -6.4344   2.0938   5.1307   5.9052   6.1986

          k =-0.4167-0.6255 0.0000 ( 10249 PWs)   bands (ev):

   -16.1611 -14.3044 -12.0408  -3.7022  -1.0448   8.5496   8.9795   9.8743

          k = 0.3333-0.3849 0.0000 ( 10259 PWs)   bands (ev):

   -17.4375 -13.7616 -10.4245  -5.0056   0.1792   7.0915   7.7251   7.8205

          k = 0.3333-0.9623 0.0000 ( 10216 PWs)   bands (ev):

   -19.2855 -11.9915  -8.1655  -6.9812   2.5735   4.4552   5.2782   5.4007

          k =-0.5000-0.0962 0.0000 ( 10259 PWs)   bands (ev):

   -17.4375 -13.7616 -10.4245  -5.0056   0.1792   7.0915   7.7251   7.8205

          k =-0.5000-0.6736 0.0000 ( 10259 PWs)   bands (ev):

   -17.4375 -13.7616 -10.4245  -5.0056   0.1792   7.0915   7.7251   7.8205

          k = 0.4167-0.4330 0.0000 ( 10243 PWs)   bands (ev):

   -16.1972 -15.2020 -10.6089  -4.1117  -0.8903   7.6193   9.3403   9.5392

          k = 0.4167-1.0104 0.0000 ( 10220 PWs)   bands (ev):

   -18.5017 -12.9904  -8.9545  -6.1287   1.3840   5.5476   6.0147   6.3809

          k =-0.5000 0.0000 0.0000 ( 10263 PWs)   bands (ev):

   -17.5856 -12.8814 -11.3347  -5.0898   0.4773   6.8832   8.0277   9.3657

          k =-0.5000-0.5774 0.0000 ( 10263 PWs)   bands (ev):

   -17.5856 -12.8814 -11.3347  -5.0898   0.4773   6.8832   8.0277   9.3657

          k = 0.3333-0.4811 0.0000 ( 10249 PWs)   bands (ev):

   -16.1611 -14.3044 -12.0408  -3.7022  -1.0448   8.5496   8.9795   9.8743

          k = 0.3333-1.0585 0.0000 ( 10209 PWs)   bands (ev):

   -19.7631 -10.8696  -8.3199  -7.5103   3.5861   3.7988   4.6005   4.8251

          k =-0.5833-0.0481 0.0000 ( 10249 PWs)   bands (ev):

   -16.1611 -14.3044 -12.0408  -3.7022  -1.0448   8.5496   8.9795   9.8743

          k =-0.5833-0.6255 0.0000 ( 10251 PWs)   bands (ev):

   -18.8148 -11.8507  -9.8501  -6.4344   2.0938   5.1307   5.9052   6.1986

     the Fermi energy is    -2.3445 ev

     Writing output data file ./_ph0/2Dgraphene.save/

                                                                                

     bravais-lattice index     =            4
     lattice parameter (alat)  =       4.6531  a.u.
     unit-cell volume          =     708.6620 (a.u.)^3
     number of atoms/cell      =            2
     number of atomic types    =            1
     kinetic-energy cut-off    =      90.0000  Ry
     charge density cut-off    =     270.0000  Ry
     convergence threshold     =      1.0E-20
     beta                      =       0.7000
     number of iterations used =            4
     Exchange-correlation= PBE
                           (   1   4   3   4   0   0   0)


     celldm(1)=    4.65307  celldm(2)=    0.00000  celldm(3)=    8.12249
     celldm(4)=    0.00000  celldm(5)=    0.00000  celldm(6)=    0.00000

     crystal axes: (cart. coord. in units of alat)
               a(1) = (  1.0000  0.0000  0.0000 )  
               a(2) = ( -0.5000  0.8660  0.0000 )  
               a(3) = (  0.0000  0.0000  8.1225 )  

     reciprocal axes: (cart. coord. in units 2 pi/alat)
               b(1) = (  1.0000  0.5774  0.0000 )  
               b(2) = (  0.0000  1.1547  0.0000 )  
               b(3) = (  0.0000  0.0000  0.1231 )  


     Atoms inside the unit cell: 

     Cartesian axes

     site n.  atom      mass           positions (alat units)
        1     C   12.0107   tau(    1) = (    0.00000    0.57735    4.06124  )
        2     C   12.0107   tau(    2) = (    0.50000    0.28868    4.06124  )

     Computing dynamical matrix for 
                    q = (   0.0000000  -0.5773503   0.0000000 )
 
      9 Sym.Ops. (with q -> -q+G )


     G cutoff =  148.0757  (   2654 G-vectors)     FFT grid: ( 25, 25,200)

     number of k points=    86  Methfessel-Paxton smearing, width (Ry)=  0.0200

     PseudoPot. # 1 for C  read from file:
     ../Pseudo/C.pbe-rrkjus.UPF
     MD5 check sum: 00fb224312de0c5b6853bd333518df6f
     Pseudo is Ultrasoft, Zval =  4.0
     Generated by new atomic code, or converted to UPF format
     Using radial grid of  627 points,  4 beta functions with: 
                l(1) =   0
                l(2) =   0
                l(3) =   1
                l(4) =   1
     Q(r) pseudized with 0 coefficients 


     Mode symmetry, D_2h (mmm)  point group:


     Atomic displacements:
     There are    6 irreducible representations

     Representation     1      1 modes -  To be done

     Representation     2      1 modes -  To be done

     Representation     3      1 modes -  To be done

     Representation     4      1 modes -  To be done

     Representation     5      1 modes -  To be done

     Representation     6      1 modes -  To be done



     Alpha used in Ewald sum =   2.8000
     PHONON       :   8m57.16s CPU   9m39.22s WALL



     Representation #   1 mode #   1

     Self-consistent Calculation

      iter #   1 total cpu time :   580.9 secs   av.it.:   5.7
      thresh= 1.000E-02 alpha_mix =  0.700 |ddv_scf|^2 =  3.733E-06

      iter #   2 total cpu time :   583.0 secs   av.it.:   9.2
      thresh= 1.932E-04 alpha_mix =  0.700 |ddv_scf|^2 =  3.175E-06

      iter #   3 total cpu time :   585.5 secs   av.it.:   8.7
      thresh= 1.782E-04 alpha_mix =  0.700 |ddv_scf|^2 =  1.285E-08

      iter #   4 total cpu time :   587.7 secs   av.it.:   8.8
      thresh= 1.134E-05 alpha_mix =  0.700 |ddv_scf|^2 =  2.009E-10

      iter #   5 total cpu time :   589.8 secs   av.it.:   8.3
      thresh= 1.417E-06 alpha_mix =  0.700 |ddv_scf|^2 =  1.474E-13

      iter #   6 total cpu time :   591.9 secs   av.it.:   9.1
      thresh= 3.840E-08 alpha_mix =  0.700 |ddv_scf|^2 =  5.654E-15

      iter #   7 total cpu time :   593.7 secs   av.it.:   9.1
      thresh= 7.519E-09 alpha_mix =  0.700 |ddv_scf|^2 =  7.857E-17

      iter #   8 total cpu time :   595.6 secs   av.it.:   8.9
      thresh= 8.864E-10 alpha_mix =  0.700 |ddv_scf|^2 =  2.970E-19

      iter #   9 total cpu time :   597.5 secs   av.it.:   9.0
      thresh= 5.449E-11 alpha_mix =  0.700 |ddv_scf|^2 =  1.725E-20

      iter #  10 total cpu time :   599.3 secs   av.it.:   8.8
      thresh= 1.314E-11 alpha_mix =  0.700 |ddv_scf|^2 =  3.313E-21

     End of self-consistent calculation

     Convergence has been achieved 


     Representation #   2 mode #   2

     Self-consistent Calculation

      iter #   1 total cpu time :   600.6 secs   av.it.:   4.0
      thresh= 1.000E-02 alpha_mix =  0.700 |ddv_scf|^2 =  3.096E-08

      iter #   2 total cpu time :   602.7 secs   av.it.:   8.0
      thresh= 1.759E-05 alpha_mix =  0.700 |ddv_scf|^2 =  2.778E-09

      iter #   3 total cpu time :   604.3 secs   av.it.:   7.4
      thresh= 5.270E-06 alpha_mix =  0.700 |ddv_scf|^2 =  2.721E-12

      iter #   4 total cpu time :   606.1 secs   av.it.:   8.7
      thresh= 1.650E-07 alpha_mix =  0.700 |ddv_scf|^2 =  2.165E-14

      iter #   5 total cpu time :   607.8 secs   av.it.:   7.7
      thresh= 1.471E-08 alpha_mix =  0.700 |ddv_scf|^2 =  9.156E-17

      iter #   6 total cpu time :   610.0 secs   av.it.:   8.6
      thresh= 9.569E-10 alpha_mix =  0.700 |ddv_scf|^2 =  1.021E-18

      iter #   7 total cpu time :   612.1 secs   av.it.:   8.2
      thresh= 1.011E-10 alpha_mix =  0.700 |ddv_scf|^2 =  6.824E-22

     End of self-consistent calculation

     Convergence has been achieved 


     Representation #   3 mode #   3

     Self-consistent Calculation

      iter #   1 total cpu time :   614.9 secs   av.it.:   5.3
      thresh= 1.000E-02 alpha_mix =  0.700 |ddv_scf|^2 =  3.405E-07

      iter #   2 total cpu time :   617.3 secs   av.it.:   8.9
      thresh= 5.836E-05 alpha_mix =  0.700 |ddv_scf|^2 =  1.042E-08

      iter #   3 total cpu time :   619.1 secs   av.it.:   8.7
      thresh= 1.021E-05 alpha_mix =  0.700 |ddv_scf|^2 =  6.686E-10

      iter #   4 total cpu time :   620.7 secs   av.it.:   7.5
      thresh= 2.586E-06 alpha_mix =  0.700 |ddv_scf|^2 =  1.278E-13

      iter #   5 total cpu time :   622.5 secs   av.it.:   8.0
      thresh= 3.575E-08 alpha_mix =  0.700 |ddv_scf|^2 =  5.731E-15

      iter #   6 total cpu time :   624.2 secs   av.it.:   8.2
      thresh= 7.570E-09 alpha_mix =  0.700 |ddv_scf|^2 =  3.043E-18

      iter #   7 total cpu time :   626.0 secs   av.it.:   8.6
      thresh= 1.744E-10 alpha_mix =  0.700 |ddv_scf|^2 =  1.316E-20

      iter #   8 total cpu time :   627.8 secs   av.it.:   8.4
      thresh= 1.147E-11 alpha_mix =  0.700 |ddv_scf|^2 =  6.077E-22

     End of self-consistent calculation

     Convergence has been achieved 


     Representation #   4 mode #   4

     Self-consistent Calculation

      iter #   1 total cpu time :   629.3 secs   av.it.:   5.0
      thresh= 1.000E-02 alpha_mix =  0.700 |ddv_scf|^2 =  1.463E-07

      iter #   2 total cpu time :   632.3 secs   av.it.:   8.8
      thresh= 3.825E-05 alpha_mix =  0.700 |ddv_scf|^2 =  5.557E-09

      iter #   3 total cpu time :   636.1 secs   av.it.:   7.3
      thresh= 7.455E-06 alpha_mix =  0.700 |ddv_scf|^2 =  3.243E-10

      iter #   4 total cpu time :   638.1 secs   av.it.:   7.0
      thresh= 1.801E-06 alpha_mix =  0.700 |ddv_scf|^2 =  1.019E-13

      iter #   5 total cpu time :   639.9 secs   av.it.:   8.2
      thresh= 3.192E-08 alpha_mix =  0.700 |ddv_scf|^2 =  4.531E-16

      iter #   6 total cpu time :   641.7 secs   av.it.:   8.6
      thresh= 2.129E-09 alpha_mix =  0.700 |ddv_scf|^2 =  7.439E-18

      iter #   7 total cpu time :   643.7 secs   av.it.:   9.0
      thresh= 2.728E-10 alpha_mix =  0.700 |ddv_scf|^2 =  1.597E-19

      iter #   8 total cpu time :   645.9 secs   av.it.:   8.1
      thresh= 3.996E-11 alpha_mix =  0.700 |ddv_scf|^2 =  8.869E-22

     End of self-consistent calculation

     Convergence has been achieved 


     Representation #   5 mode #   5

     Self-consistent Calculation

      iter #   1 total cpu time :   648.5 secs   av.it.:   5.1
      thresh= 1.000E-02 alpha_mix =  0.700 |ddv_scf|^2 =  1.866E-06

      iter #   2 total cpu time :   650.4 secs   av.it.:   9.3
      thresh= 1.366E-04 alpha_mix =  0.700 |ddv_scf|^2 =  2.727E-06

      iter #   3 total cpu time :   652.2 secs   av.it.:   8.6
      thresh= 1.651E-04 alpha_mix =  0.700 |ddv_scf|^2 =  2.363E-09

      iter #   4 total cpu time :   654.0 secs   av.it.:   8.6
      thresh= 4.861E-06 alpha_mix =  0.700 |ddv_scf|^2 =  1.907E-11

      iter #   5 total cpu time :   655.8 secs   av.it.:   8.6
      thresh= 4.367E-07 alpha_mix =  0.700 |ddv_scf|^2 =  4.047E-13

      iter #   6 total cpu time :   657.6 secs   av.it.:   8.9
      thresh= 6.362E-08 alpha_mix =  0.700 |ddv_scf|^2 =  1.427E-15

      iter #   7 total cpu time :   659.5 secs   av.it.:   8.8
      thresh= 3.778E-09 alpha_mix =  0.700 |ddv_scf|^2 =  5.612E-18

      iter #   8 total cpu time :   661.2 secs   av.it.:   8.3
      thresh= 2.369E-10 alpha_mix =  0.700 |ddv_scf|^2 =  1.289E-19

      iter #   9 total cpu time :   663.1 secs   av.it.:   9.2
      thresh= 3.591E-11 alpha_mix =  0.700 |ddv_scf|^2 =  4.009E-21

     End of self-consistent calculation

     Convergence has been achieved 


     Representation #   6 mode #   6

     Self-consistent Calculation

      iter #   1 total cpu time :   664.7 secs   av.it.:   5.0
      thresh= 1.000E-02 alpha_mix =  0.700 |ddv_scf|^2 =  2.760E-07

      iter #   2 total cpu time :   666.6 secs   av.it.:   9.1
      thresh= 5.254E-05 alpha_mix =  0.700 |ddv_scf|^2 =  4.576E-09

      iter #   3 total cpu time :   668.4 secs   av.it.:   8.6
      thresh= 6.764E-06 alpha_mix =  0.700 |ddv_scf|^2 =  3.665E-10

      iter #   4 total cpu time :   670.4 secs   av.it.:   7.6
      thresh= 1.914E-06 alpha_mix =  0.700 |ddv_scf|^2 =  1.091E-13

      iter #   5 total cpu time :   672.3 secs   av.it.:   8.7
      thresh= 3.303E-08 alpha_mix =  0.700 |ddv_scf|^2 =  1.235E-15

      iter #   6 total cpu time :   675.2 secs   av.it.:   8.3
      thresh= 3.514E-09 alpha_mix =  0.700 |ddv_scf|^2 =  2.066E-17

      iter #   7 total cpu time :   677.6 secs   av.it.:   9.1
      thresh= 4.545E-10 alpha_mix =  0.700 |ddv_scf|^2 =  6.895E-20

[...]

          k = 0.1667 0.2887 0.0000 ( 10239 PWs)   bands (ev):

   -19.9234 -10.1258  -8.7954  -7.6893   3.5784   4.0436   4.3514   4.5968

          k = 0.5000 0.8660 0.0000 ( 10232 PWs)   bands (ev):

   -16.6178 -15.6032  -8.8010  -4.7106  -0.6634   5.0869   8.7793   8.9302

          k = 0.1667 0.3849 0.0000 ( 10251 PWs)   bands (ev):

   -18.8148 -11.8507  -9.8501  -6.4344   2.0938   5.1307   5.9052   6.1986

          k = 0.5000 0.9623 0.0000 ( 10235 PWs)   bands (ev):

   -17.0193 -14.9334  -9.2828  -4.8175  -0.3869   5.8203   7.7723   8.9443

          k = 0.1667 0.4811 0.0000 ( 10259 PWs)   bands (ev):

   -17.4375 -13.7616 -10.4245  -5.0056   0.1792   7.0915   7.7251   7.8205

          k = 0.5000 1.0585 0.0000 ( 10259 PWs)   bands (ev):

   -17.4375 -13.7616 -10.4245  -5.0056   0.1792   7.0915   7.7251   7.8205

          k = 0.1667 0.5774 0.0000 ( 10243 PWs)   bands (ev):

   -16.1972 -15.2020 -10.6089  -4.1117  -0.8903   7.6193   9.3403   9.5392

          k = 0.5000 1.1547 0.0000 ( 10263 PWs)   bands (ev):

   -17.5856 -12.8814 -11.3347  -5.0898   0.4773   6.8832   8.0277   9.3657

          k = 0.2500 0.4330 0.0000 ( 10263 PWs)   bands (ev):

   -17.5856 -12.8814 -11.3347  -5.0898   0.4773   6.8832   8.0277   9.3657

          k = 0.5833 1.0104 0.0000 ( 10243 PWs)   bands (ev):

   -16.1972 -15.2020 -10.6089  -4.1117  -0.8903   7.6193   9.3403   9.5392

          k = 0.2500 0.5292 0.0000 ( 10249 PWs)   bands (ev):

   -16.1611 -14.3044 -12.0408  -3.7022  -1.0448   8.5496   8.9795   9.8743

          k = 0.5833 1.1066 0.0000 ( 10249 PWs)   bands (ev):

   -16.1611 -14.3044 -12.0408  -3.7022  -1.0448   8.5496   8.9795   9.8743

          k = 0.3333 0.5774 0.0000 ( 10245 PWs)   bands (ev):

   -14.9417 -14.9417 -12.9432  -2.3445  -2.3445  10.5466  10.5466  11.1628

          k = 0.6667 1.1547 0.0000 ( 10245 PWs)   bands (ev):

   -14.9417 -14.9417 -12.9432  -2.3445  -2.3445  10.5466  10.5466  11.1628

          k =-0.0833 0.1443 0.0000 ( 10131 PWs)   bands (ev):

   -21.3793  -9.3971  -7.0964  -6.4363   1.5694   2.3256   2.5364   3.4895

          k = 0.2500 0.7217 0.0000 ( 10263 PWs)   bands (ev):

   -17.5856 -12.8814 -11.3347  -5.0898   0.4773   6.8832   8.0277   9.3657

          k =-0.1667 0.1925 0.0000 ( 10192 PWs)   bands (ev):

   -20.7286  -8.8005  -8.6279  -7.4340   2.4630   3.2284   3.4521   4.3917

          k = 0.1667 0.7698 0.0000 ( 10251 PWs)   bands (ev):

   -18.8148 -11.8507  -9.8501  -6.4344   2.0938   5.1307   5.9052   6.1986

          k =-0.2500 0.2406 0.0000 ( 10209 PWs)   bands (ev):

   -19.7631 -10.8696  -8.3199  -7.5103   3.5861   3.7988   4.6005   4.8251

          k = 0.0833 0.8179 0.0000 ( 10209 PWs)   bands (ev):

   -19.7631 -10.8696  -8.3199  -7.5103   3.5861   3.7988   4.6005   4.8251

          k =-0.3333 0.2887 0.0000 ( 10220 PWs)   bands (ev):

   -18.5017 -12.9904  -8.9545  -6.1287   1.3840   5.5476   6.0147   6.3809

          k = 0.0000 0.8660 0.0000 ( 10194 PWs)   bands (ev):

   -20.4051  -9.7915  -8.2513  -7.4318   2.9077   3.6695   3.9095   4.7650

          k =-0.4167 0.3368 0.0000 ( 10235 PWs)   bands (ev):

   -17.0193 -14.9334  -9.2828  -4.8175  -0.3869   5.8203   7.7723   8.9443

          k =-0.0833 0.9141 0.0000 ( 10192 PWs)   bands (ev):

   -20.7286  -8.8005  -8.6279  -7.4340   2.4630   3.2284   3.4521   4.3917

          k =-0.1667 0.2887 0.0000 ( 10239 PWs)   bands (ev):

   -19.9234 -10.1258  -8.7954  -7.6893   3.5784   4.0436   4.3514   4.5968

          k = 0.1667 0.8660 0.0000 ( 10239 PWs)   bands (ev):

   -19.9234 -10.1258  -8.7954  -7.6893   3.5784   4.0436   4.3514   4.5968

          k =-0.2500 0.3368 0.0000 ( 10251 PWs)   bands (ev):

   -18.8148 -11.8507  -9.8501  -6.4344   2.0938   5.1307   5.9052   6.1986

          k = 0.0833 0.9141 0.0000 ( 10192 PWs)   bands (ev):

   -20.7286  -8.8005  -8.6279  -7.4340   2.4630   3.2284   3.4521   4.3917

          k =-0.3333 0.3849 0.0000 ( 10259 PWs)   bands (ev):

   -17.4375 -13.7616 -10.4245  -5.0056   0.1792   7.0915   7.7251   7.8205

          k = 0.0000 0.9623 0.0000 ( 10132 PWs)   bands (ev):

   -21.2161  -9.2035  -7.6986  -6.5517   1.7926   2.5516   2.7652   3.7154

          k =-0.4167 0.4330 0.0000 ( 10243 PWs)   bands (ev):

   -16.1972 -15.2020 -10.6089  -4.1117  -0.8903   7.6193   9.3403   9.5392

          k =-0.0833 1.0104 0.0000 ( 10131 PWs)   bands (ev):

   -21.3793  -9.3971  -7.0964  -6.4363   1.5694   2.3256   2.5364   3.4895

          k =-0.2500 0.4330 0.0000 ( 10263 PWs)   bands (ev):

   -17.5856 -12.8814 -11.3347  -5.0898   0.4773   6.8832   8.0277   9.3657

          k = 0.0833 1.0104 0.0000 ( 10131 PWs)   bands (ev):

   -21.3793  -9.3971  -7.0964  -6.4363   1.5694   2.3256   2.5364   3.4895

          k =-0.3333 0.4811 0.0000 ( 10249 PWs)   bands (ev):

   -16.1611 -14.3044 -12.0408  -3.7022  -1.0448   8.5496   8.9795   9.8743

          k = 0.0000 1.0585 0.0000 ( 10121 PWs)   bands (ev):

   -21.7066  -9.7874  -6.0675  -5.7589   1.1222   1.8727   2.0785   3.0366

          k =-0.3333 0.5774 0.0000 ( 10245 PWs)   bands (ev):

   -14.9417 -14.9417 -12.9432  -2.3445  -2.3445  10.5466  10.5466  11.1628

          k = 0.0000 1.1547 0.0000 ( 10069 PWs)   bands (ev):

   -21.8707  -9.9838  -5.4204  -5.4204   0.8987   1.6461   1.8496   2.8099

     the Fermi energy is    -2.3445 ev

     Writing output data file ./_ph0/2Dgraphene.save/

                                                                                

     bravais-lattice index     =            4
     lattice parameter (alat)  =       4.6531  a.u.
     unit-cell volume          =     708.6620 (a.u.)^3
     number of atoms/cell      =            2
     number of atomic types    =            1
     kinetic-energy cut-off    =      90.0000  Ry
     charge density cut-off    =     270.0000  Ry
     convergence threshold     =      1.0E-20
     beta                      =       0.7000
     number of iterations used =            4
     Exchange-correlation= PBE
                           (   1   4   3   4   0   0   0)


     celldm(1)=    4.65307  celldm(2)=    0.00000  celldm(3)=    8.12249
     celldm(4)=    0.00000  celldm(5)=    0.00000  celldm(6)=    0.00000

     crystal axes: (cart. coord. in units of alat)
               a(1) = (  1.0000  0.0000  0.0000 )  
               a(2) = ( -0.5000  0.8660  0.0000 )  
               a(3) = (  0.0000  0.0000  8.1225 )  

     reciprocal axes: (cart. coord. in units 2 pi/alat)
               b(1) = (  1.0000  0.5774  0.0000 )  
               b(2) = (  0.0000  1.1547  0.0000 )  
               b(3) = (  0.0000  0.0000  0.1231 )  


     Atoms inside the unit cell: 

     Cartesian axes

     site n.  atom      mass           positions (alat units)
        1     C   12.0107   tau(    1) = (    0.00000    0.57735    4.06124  )
        2     C   12.0107   tau(    2) = (    0.50000    0.28868    4.06124  )

     Computing dynamical matrix for 
                    q = (   0.3333333   0.5773503   0.0000000 )
 
     12 Sym.Ops. (no q -> -q+G )


     G cutoff =  148.0757  (   2650 G-vectors)     FFT grid: ( 25, 25,200)

     number of k points=    62  Methfessel-Paxton smearing, width (Ry)=  0.0200

     PseudoPot. # 1 for C  read from file:
     ../Pseudo/C.pbe-rrkjus.UPF
     MD5 check sum: 00fb224312de0c5b6853bd333518df6f
     Pseudo is Ultrasoft, Zval =  4.0
     Generated by new atomic code, or converted to UPF format
     Using radial grid of  627 points,  4 beta functions with: 
                l(1) =   0
                l(2) =   0
                l(3) =   1
                l(4) =   1
     Q(r) pseudized with 0 coefficients 


     Mode symmetry, D_3h (-62m) point group:


     Atomic displacements:
     There are    4 irreducible representations

     Representation     1      1 modes -  To be done

     Representation     2      1 modes -  To be done

     Representation     3      2 modes -  To be done

     Representation     4      2 modes -  To be done



     Alpha used in Ewald sum =   2.8000
     PHONON       :  22m 8.59s CPU  23m38.97s WALL



     Representation #   1 mode #   1

     Self-consistent Calculation

      iter #   1 total cpu time :  1420.2 secs   av.it.:   5.4
      thresh= 1.000E-02 alpha_mix =  0.700 |ddv_scf|^2 =  1.529E-06

      iter #   2 total cpu time :  1421.7 secs   av.it.:   9.1
      thresh= 1.237E-04 alpha_mix =  0.700 |ddv_scf|^2 =  2.110E-07

      iter #   3 total cpu time :  1423.2 secs   av.it.:   8.9
      thresh= 4.594E-05 alpha_mix =  0.700 |ddv_scf|^2 =  5.621E-10

      iter #   4 total cpu time :  1424.7 secs   av.it.:   8.0
      thresh= 2.371E-06 alpha_mix =  0.700 |ddv_scf|^2 =  1.532E-12

      iter #   5 total cpu time :  1426.1 secs   av.it.:   9.0
      thresh= 1.238E-07 alpha_mix =  0.700 |ddv_scf|^2 =  1.147E-14

      iter #   6 total cpu time :  1427.6 secs   av.it.:   8.6
      thresh= 1.071E-08 alpha_mix =  0.700 |ddv_scf|^2 =  4.526E-16

      iter #   7 total cpu time :  1429.0 secs   av.it.:   8.4
      thresh= 2.127E-09 alpha_mix =  0.700 |ddv_scf|^2 =  8.138E-19

      iter #   8 total cpu time :  1430.3 secs   av.it.:   7.9
      thresh= 9.021E-11 alpha_mix =  0.700 |ddv_scf|^2 =  9.468E-20

      iter #   9 total cpu time :  1431.8 secs   av.it.:   8.6
      thresh= 3.077E-11 alpha_mix =  0.700 |ddv_scf|^2 =  8.608E-22

     End of self-consistent calculation

     Convergence has been achieved 


     Representation #   2 mode #   2

     Self-consistent Calculation

      iter #   1 total cpu time :  1432.8 secs   av.it.:   4.0
      thresh= 1.000E-02 alpha_mix =  0.700 |ddv_scf|^2 =  1.997E-08

      iter #   2 total cpu time :  1434.2 secs   av.it.:   7.5
      thresh= 1.413E-05 alpha_mix =  0.700 |ddv_scf|^2 =  1.882E-09

      iter #   3 total cpu time :  1435.4 secs   av.it.:   6.9
      thresh= 4.338E-06 alpha_mix =  0.700 |ddv_scf|^2 =  8.416E-13

      iter #   4 total cpu time :  1436.8 secs   av.it.:   8.5
      thresh= 9.174E-08 alpha_mix =  0.700 |ddv_scf|^2 =  8.618E-15

      iter #   5 total cpu time :  1438.4 secs   av.it.:   7.4
      thresh= 9.283E-09 alpha_mix =  0.700 |ddv_scf|^2 =  7.698E-17

      iter #   6 total cpu time :  1440.4 secs   av.it.:   8.5
      thresh= 8.774E-10 alpha_mix =  0.700 |ddv_scf|^2 =  2.963E-19

      iter #   7 total cpu time :  1442.2 secs   av.it.:   7.4
      thresh= 5.444E-11 alpha_mix =  0.700 |ddv_scf|^2 =  1.269E-22

     End of self-consistent calculation

     Convergence has been achieved 


     Representation #   3 modes #   3   4

     Self-consistent Calculation

      iter #   1 total cpu time :  1446.7 secs   av.it.:   5.3
      thresh= 1.000E-02 alpha_mix =  0.700 |ddv_scf|^2 =  4.785E-07

      iter #   2 total cpu time :  1450.2 secs   av.it.:  10.0
      thresh= 6.917E-05 alpha_mix =  0.700 |ddv_scf|^2 =  6.938E-07

      iter #   3 total cpu time :  1453.4 secs   av.it.:   9.4
      thresh= 8.330E-05 alpha_mix =  0.700 |ddv_scf|^2 =  1.067E-09

      iter #   4 total cpu time :  1456.9 secs   av.it.:   9.5
      thresh= 3.266E-06 alpha_mix =  0.700 |ddv_scf|^2 =  1.761E-11

      iter #   5 total cpu time :  1459.8 secs   av.it.:   9.4
      thresh= 4.196E-07 alpha_mix =  0.700 |ddv_scf|^2 =  1.164E-14

      iter #   6 total cpu time :  1462.7 secs   av.it.:   9.7
      thresh= 1.079E-08 alpha_mix =  0.700 |ddv_scf|^2 =  4.686E-16

      iter #   7 total cpu time :  1465.6 secs   av.it.:   9.2
      thresh= 2.165E-09 alpha_mix =  0.700 |ddv_scf|^2 =  3.886E-18

      iter #   8 total cpu time :  1468.5 secs   av.it.:   9.6
      thresh= 1.971E-10 alpha_mix =  0.700 |ddv_scf|^2 =  4.025E-20

      iter #   9 total cpu time :  1471.3 secs   av.it.:   9.4
      thresh= 2.006E-11 alpha_mix =  0.700 |ddv_scf|^2 =  2.113E-21

     End of self-consistent calculation

     Convergence has been achieved 


     Representation #   4 modes #   5   6

     Self-consistent Calculation

      iter #   1 total cpu time :  1475.1 secs   av.it.:   5.2
      thresh= 1.000E-02 alpha_mix =  0.700 |ddv_scf|^2 =  4.316E-08

      iter #   2 total cpu time :  1478.4 secs   av.it.:   9.8
      thresh= 2.077E-05 alpha_mix =  0.700 |ddv_scf|^2 =  1.010E-09

      iter #   3 total cpu time :  1481.5 secs   av.it.:   9.2
      thresh= 3.178E-06 alpha_mix =  0.700 |ddv_scf|^2 =  8.481E-11

      iter #   4 total cpu time :  1484.4 secs   av.it.:   8.2
      thresh= 9.209E-07 alpha_mix =  0.700 |ddv_scf|^2 =  2.344E-14

      iter #   5 total cpu time :  1487.1 secs   av.it.:   8.5
      thresh= 1.531E-08 alpha_mix =  0.700 |ddv_scf|^2 =  1.324E-16

      iter #   6 total cpu time :  1489.9 secs   av.it.:   9.3
      thresh= 1.151E-09 alpha_mix =  0.700 |ddv_scf|^2 =  6.411E-19

      iter #   7 total cpu time :  1492.9 secs   av.it.:   9.5
      thresh= 8.007E-11 alpha_mix =  0.700 |ddv_scf|^2 =  3.642E-21

     End of self-consistent calculation

     Convergence has been achieved 
 
     Number of q in the star =    2
     List of q in the star:
          1   0.333333333   0.577350269   0.000000000
          2  -0.333333333   0.577350269   0.000000000

     Diagonalizing the dynamical matrix

     q = (    0.333333333   0.577350269   0.000000000 ) 

 **************************************************************************
     freq (    1) =      16.171642 [THz] =     539.427915 [cm-1]
     freq (    2) =      16.171642 [THz] =     539.427915 [cm-1]
     freq (    3) =      29.870338 [THz] =     996.367220 [cm-1]
     freq (    4) =      35.938620 [THz] =    1198.783312 [cm-1]
     freq (    5) =      36.308047 [THz] =    1211.106073 [cm-1]
     freq (    6) =      36.308047 [THz] =    1211.106074 [cm-1]
 **************************************************************************

     Mode symmetry, D_3h (-62m) point group:

     freq (   1-   2) =        539.4  [cm-1]   --> E''                
     freq (   3-   3) =        996.4  [cm-1]   --> A'_2               
     freq (   4-   4) =       1198.8  [cm-1]   --> A'_1               
     freq (   5-   6) =       1211.1  [cm-1]   --> E'                 
 
     init_run     :      0.65s CPU      0.69s WALL (       6 calls)
     electrons    :    223.20s CPU    229.54s WALL (       6 calls)

     Called by init_run:
     wfcinit      :      0.00s CPU      0.00s WALL (       6 calls)
     potinit      :      0.09s CPU      0.10s WALL (       6 calls)
     hinit0       :      0.24s CPU      0.25s WALL (       6 calls)

     Called by electrons:
     c_bands      :    223.17s CPU    229.50s WALL (       6 calls)
     v_of_rho     :      0.07s CPU      0.07s WALL (       7 calls)
     newd         :      0.03s CPU      0.04s WALL (       7 calls)

     Called by c_bands:
     init_us_2    :      7.33s CPU      7.60s WALL (   34112 calls)
     cegterg      :    213.48s CPU    219.40s WALL (    1634 calls)

     Called by *egterg:
     cdiaghg      :     91.36s CPU     92.90s WALL (   23326 calls)
     h_psi        :    828.00s CPU    856.79s WALL (  328204 calls)
     s_psi        :     21.18s CPU     22.08s WALL (  660751 calls)
     g_psi        :      0.80s CPU      0.82s WALL (   22422 calls)

     Called by h_psi:
     h_psi:calbec :     52.61s CPU     54.34s WALL (  328204 calls)
     vloc_psi     :    755.90s CPU    782.23s WALL (  328204 calls)
     add_vuspsi   :     12.14s CPU     12.61s WALL (  328204 calls)

     General routines
     calbec       :     92.59s CPU     96.01s WALL (  710778 calls)
     fft          :     11.49s CPU     11.67s WALL (    5461 calls)
     ffts         :      1.72s CPU      1.85s WALL (    3404 calls)
     fftw         :    868.65s CPU    902.80s WALL ( 2817766 calls)
     davcio       :      7.12s CPU      8.18s WALL (  152305 calls)
 
     Parallel routines
     fft_scatt_xy :     67.09s CPU     69.55s WALL ( 2826631 calls)
     fft_scatt_yz :    383.87s CPU    398.39s WALL ( 2826631 calls)
 
     PHONON       :  23m15.82s CPU  24m52.93s WALL

     INITIALIZATION: 
     phq_setup    :      0.18s CPU      0.20s WALL (       7 calls)
     phq_init     :      9.97s CPU     10.70s WALL (       7 calls)
 
     phq_init     :      9.97s CPU     10.70s WALL (       7 calls)
     init_vloc    :      0.06s CPU      0.06s WALL (       7 calls)
     init_us_1    :      0.22s CPU      0.23s WALL (       7 calls)
     newd         :      0.03s CPU      0.04s WALL (       7 calls)
     dvanqq       :      0.49s CPU      0.49s WALL (       7 calls)
     drho         :      8.11s CPU      8.74s WALL (       7 calls)
 
     DYNAMICAL MATRIX:
     dynmat0      :      0.77s CPU      0.82s WALL (       7 calls)
     phqscf       :   1161.09s CPU   1250.48s WALL (       7 calls)
     dynmatrix    :      0.02s CPU      0.04s WALL (       7 calls)
 
     phqscf       :   1161.09s CPU   1250.48s WALL (       7 calls)
     solve_linter :   1158.18s CPU   1240.33s WALL (      38 calls)
     drhodv       :      2.86s CPU      2.99s WALL (      38 calls)
 
     dynmat0      :      0.77s CPU      0.82s WALL (       7 calls)
     dynmat_us    :      0.75s CPU      0.79s WALL (       7 calls)
     d2ionq       :      0.02s CPU      0.02s WALL (       7 calls)
 
     dynmat_us    :      0.75s CPU      0.79s WALL (       7 calls)
     addusdynmat  :      0.00s CPU      0.00s WALL (       7 calls)
 
     phqscf       :   1161.09s CPU   1250.48s WALL (       7 calls)
     solve_linter :   1158.18s CPU   1240.33s WALL (      38 calls)
 
     solve_linter :   1158.18s CPU   1240.33s WALL (      38 calls)
     dvqpsi_us    :     18.01s CPU     18.68s WALL (    2826 calls)
     ortho        :     12.87s CPU     13.37s WALL (   29303 calls)
     cgsolve      :    883.58s CPU    914.99s WALL (   29303 calls)
     incdrhoscf   :     88.90s CPU     93.79s WALL (   29303 calls)
     addusddens   :      3.36s CPU      3.40s WALL (     409 calls)
     vpsifft      :     73.14s CPU     77.95s WALL (   26477 calls)
     dv_of_drho   :     10.67s CPU     10.76s WALL (     401 calls)
     mix_pot      :      0.56s CPU      0.86s WALL (     371 calls)
     ef_shift     :      0.06s CPU      0.07s WALL (      35 calls)
     localdos     :      0.26s CPU      0.27s WALL (       4 calls)
     psymdvscf    :     34.14s CPU     34.83s WALL (     371 calls)
     newdq        :      3.41s CPU      3.47s WALL (     371 calls)
     adddvscf     :      2.70s CPU      2.80s WALL (   26477 calls)
     drhodvus     :      0.07s CPU      0.08s WALL (      38 calls)
 
     dvqpsi_us    :     18.01s CPU     18.68s WALL (    2826 calls)
     dvqpsi_us_on :      1.25s CPU      1.28s WALL (    2826 calls)
 
     cgsolve      :    883.58s CPU    914.99s WALL (   29303 calls)
     ch_psi       :    838.02s CPU    867.32s WALL (  303244 calls)
 
     ch_psi       :    838.02s CPU    867.32s WALL (  303244 calls)
     h_psi        :    828.00s CPU    856.79s WALL (  328204 calls)
     last         :     77.38s CPU     80.45s WALL (  303244 calls)
 
     h_psi        :    828.00s CPU    856.79s WALL (  328204 calls)
     add_vuspsi   :     12.14s CPU     12.61s WALL (  328204 calls)
 
     incdrhoscf   :     88.90s CPU     93.79s WALL (   29303 calls)
     addusdbec    :      7.81s CPU      8.10s WALL (   32129 calls)
 
     drhodvus     :      0.07s CPU      0.08s WALL (      38 calls)
 
      General routines
     calbec       :     92.59s CPU     96.01s WALL (  710778 calls)
     fft          :     11.49s CPU     11.67s WALL (    5461 calls)
     ffts         :      1.72s CPU      1.85s WALL (    3404 calls)
     fftw         :    868.65s CPU    902.80s WALL ( 2817766 calls)
     davcio       :      7.12s CPU      8.18s WALL (  152305 calls)
     write_rec    :      0.19s CPU     44.16s WALL (     409 calls)
 
 
     PHONON       :  23m15.82s CPU  24m52.93s WALL

 
   This run was terminated on:  12:45:17  18Feb2022            

=------------------------------------------------------------------------------=
   JOB DONE.
=------------------------------------------------------------------------------=
