
     Program PWSCF v.6.7MaX starts on 15Nov2021 at 11:47:33 

     This program is part of the open-source Quantum ESPRESSO suite
     for quantum simulation of materials; please cite
         "P. Giannozzi et al., J. Phys.:Condens. Matter 21 395502 (2009);
         "P. Giannozzi et al., J. Phys.:Condens. Matter 29 465901 (2017);
          URL http://www.quantum-espresso.org", 
     in publications or presentations arising from this work. More details at
     http://www.quantum-espresso.org/quote

     Parallel version (MPI), running on    10 processors

     MPI processes distributed on     1 nodes
     R & G space division:  proc/nbgrp/npool/nimage =      10
     Waiting for input...
     Reading input from standard input

     Current dimensions of program PWSCF are:
     Max number of different atomic species (ntypx) = 10
     Max number of k-points (npk) =  40000
     Max angular momentum in pseudopotentials (lmaxx) =  3
     file Mo.pbe-spn-kjpaw_psl.0.2.UPF: wavefunction(s)  4D renormalized
     file S.pbe-n-kjpaw_psl.0.1.UPF: wavefunction(s)  3P renormalized

     Subspace diagonalization in iterative solution of the eigenvalue problem:
     one sub-group per band group will be used
     scalapack distributed-memory algorithm (size of sub-group:  3*  3 procs)

 
     Parallelization info
     --------------------
     sticks:   dense  smooth     PW     G-vecs:    dense   smooth      PW
     Min         123      49     15                17517     4435     735
     Max         124      50     16                17536     4456     752
     Sum        1237     499    151               175305    44481    7387
 


     bravais-lattice index     =            4
     lattice parameter (alat)  =       5.9830  a.u.
     unit-cell volume          =     927.3798 (a.u.)^3
     number of atoms/cell      =            3
     number of atomic types    =            2
     number of electrons       =        26.00
     number of Kohn-Sham states=           13
     kinetic-energy cutoff     =      50.0000  Ry
     charge density cutoff     =     500.0000  Ry
     scf convergence threshold =      1.0E-08
     mixing beta               =       0.5000
     number of iterations used =            8  local-TF  mixing
     energy convergence thresh.=      1.0E-04
     force convergence thresh. =      1.0E-04
     press convergence thresh. =      5.0E-01
     Exchange-correlation= SLA  PW   PBX  PBC
                           (   1   4   3   4   0   0   0)
     nstep                     =           50


     celldm(1)=   5.983000  celldm(2)=   0.000000  celldm(3)=   5.000000
     celldm(4)=   0.000000  celldm(5)=   0.000000  celldm(6)=   0.000000

     crystal axes: (cart. coord. in units of alat)
               a(1) = (   1.000000   0.000000   0.000000 )  
               a(2) = (  -0.500000   0.866025   0.000000 )  
               a(3) = (   0.000000   0.000000   5.000000 )  

     reciprocal axes: (cart. coord. in units 2 pi/alat)
               b(1) = (  1.000000  0.577350  0.000000 )  
               b(2) = (  0.000000  1.154701  0.000000 )  
               b(3) = (  0.000000  0.000000  0.200000 )  


     PseudoPot. # 1 for Mo read from file:
     ../Pseudo/Mo.pbe-spn-kjpaw_psl.0.2.UPF
     MD5 check sum: 99c4efbabb9e14294ed14bd31c5e2f8a
     Pseudo is Projector augmented-wave + core cor, Zval = 14.0
     Generated using "atomic" code by A. Dal Corso  v.5.0.2 svn rev. 9415
     Shape of augmentation charge: PSQ
     Using radial grid of 1229 points,  6 beta functions with: 
                l(1) =   0
                l(2) =   0
                l(3) =   1
                l(4) =   1
                l(5) =   2
                l(6) =   2
     Q(r) pseudized with 0 coefficients 


     PseudoPot. # 2 for S  read from file:
     ../Pseudo/S.pbe-n-kjpaw_psl.0.1.UPF
     MD5 check sum: 5138ed5699b2c5d2fdac7c35a9631f5b
     Pseudo is Projector augmented-wave + core cor, Zval =  6.0
     Generated using "atomic" code by A. Dal Corso  v.5.0.2 svn rev. 9415
     Shape of augmentation charge: PSQ
     Using radial grid of 1151 points,  4 beta functions with: 
                l(1) =   0
                l(2) =   0
                l(3) =   1
                l(4) =   1
     Q(r) pseudized with 0 coefficients 


     atomic species   valence    mass     pseudopotential
        Mo            14.00    95.94000     Mo( 1.00)
        S              6.00    32.06500     S ( 1.00)

      4 Sym. Ops. (no inversion) found



   Cartesian axes

     site n.     atom                  positions (alat units)
         1           Mo  tau(   1) = (   0.0000000   0.0000000   0.0000000  )
         2           S   tau(   2) = (   0.0000000   0.5819251   0.4947519  )
         3           S   tau(   3) = (   0.0000000   0.5819251  -0.4947519  )

     number of k points=    43
                       cart. coord. in units 2pi/alat
        k(    1) = (   0.0000000   0.0000000   0.0000000), wk =   0.0138889
        k(    2) = (   0.0000000   0.0962250   0.0000000), wk =   0.0277778
        k(    3) = (   0.0000000   0.1924501   0.0000000), wk =   0.0277778
        k(    4) = (   0.0000000   0.2886751   0.0000000), wk =   0.0277778
        k(    5) = (   0.0000000   0.3849002   0.0000000), wk =   0.0277778
        k(    6) = (   0.0000000   0.4811252   0.0000000), wk =   0.0277778
        k(    7) = (   0.0000000  -0.5773503   0.0000000), wk =   0.0138889
        k(    8) = (   0.0833333   0.1443376   0.0000000), wk =   0.0555556
        k(    9) = (   0.0833333   0.2405626   0.0000000), wk =   0.0555556
        k(   10) = (   0.0833333   0.3367877   0.0000000), wk =   0.0555556
        k(   11) = (   0.0833333   0.4330127   0.0000000), wk =   0.0555556
        k(   12) = (   0.0833333   0.5292377   0.0000000), wk =   0.0555556
        k(   13) = (   0.1666667   0.2886751   0.0000000), wk =   0.0555556
        k(   14) = (   0.1666667   0.3849002   0.0000000), wk =   0.0555556
        k(   15) = (   0.1666667   0.4811252   0.0000000), wk =   0.0555556
        k(   16) = (   0.1666667   0.5773503   0.0000000), wk =   0.0277778
        k(   17) = (   0.2500000   0.4330127   0.0000000), wk =   0.0555556
        k(   18) = (   0.2500000   0.5292377   0.0000000), wk =   0.0555556
        k(   19) = (   0.3333333   0.5773503   0.0000000), wk =   0.0277778
        k(   20) = (  -0.0833333   0.0481125   0.0000000), wk =   0.0555556
        k(   21) = (  -0.1666667   0.0962250   0.0000000), wk =   0.0555556
        k(   22) = (  -0.2500000   0.1443376   0.0000000), wk =   0.0555556
        k(   23) = (  -0.3333333   0.1924501   0.0000000), wk =   0.0555556
        k(   24) = (  -0.4166667   0.2405626   0.0000000), wk =   0.0555556
        k(   25) = (   0.5000000  -0.2886751   0.0000000), wk =   0.0277778
        k(   26) = (   0.1666667   0.0000000   0.0000000), wk =   0.0277778
        k(   27) = (  -0.1666667   0.1924501   0.0000000), wk =   0.0555556
        k(   28) = (   0.2500000   0.0481125   0.0000000), wk =   0.0555556
        k(   29) = (  -0.2500000   0.2405626   0.0000000), wk =   0.0555556
        k(   30) = (   0.3333333   0.0962250   0.0000000), wk =   0.0555556
        k(   31) = (  -0.3333333   0.2886751   0.0000000), wk =   0.0555556
        k(   32) = (   0.4166667   0.1443376   0.0000000), wk =   0.0555556
        k(   33) = (  -0.4166667   0.3367877   0.0000000), wk =   0.0555556
        k(   34) = (   0.5000000   0.1924501   0.0000000), wk =   0.0555556
        k(   35) = (   0.3333333   0.0000000   0.0000000), wk =   0.0277778
        k(   36) = (  -0.2500000   0.3367877   0.0000000), wk =   0.0555556
        k(   37) = (   0.4166667   0.0481125   0.0000000), wk =   0.0555556
        k(   38) = (  -0.3333333   0.3849002   0.0000000), wk =   0.0555556
        k(   39) = (   0.5000000   0.0962250   0.0000000), wk =   0.0555556
        k(   40) = (  -0.4166667   0.4330127   0.0000000), wk =   0.0555556
        k(   41) = (   0.5000000   0.0000000   0.0000000), wk =   0.0277778
        k(   42) = (  -0.3333333   0.4811252   0.0000000), wk =   0.0555556
        k(   43) = (   0.5833333   0.0481125   0.0000000), wk =   0.0555556

     Dense  grid:   175305 G-vectors     FFT dimensions: (  45,  45, 216)

     Smooth grid:    44481 G-vectors     FFT dimensions: (  27,  27, 135)

     Estimated max dynamical RAM per process >      76.86 MB

     Estimated total dynamical RAM >     768.60 MB

     Check: negative core charge=   -0.000001

     Initial potential from superposition of free atoms

     starting charge   25.99864, renormalised to   26.00000

     negative rho (up, down):  6.044E-05 0.000E+00
     Starting wfcs are   21 randomized atomic wfcs
     Checking if some PAW data can be deallocated... 

     total cpu time spent up to now is        2.4 secs

     Self-consistent Calculation

     iteration #  1     ecut=    50.00 Ry     beta= 0.50
     Davidson diagonalization with overlap
     ethr =  1.00E-02,  avg # of iterations =  2.0

     negative rho (up, down):  2.522E-07 0.000E+00

     total cpu time spent up to now is        4.1 secs

     total energy              =    -496.64683543 Ry
     estimated scf accuracy    <       0.48512856 Ry

     iteration #  2     ecut=    50.00 Ry     beta= 0.50
     Davidson diagonalization with overlap
     ethr =  1.87E-03,  avg # of iterations =  2.0

     negative rho (up, down):  5.349E-08 0.000E+00

     total cpu time spent up to now is        5.7 secs

     total energy              =    -496.59299138 Ry
     estimated scf accuracy    <       0.17498630 Ry

     iteration #  3     ecut=    50.00 Ry     beta= 0.50
     Davidson diagonalization with overlap
     ethr =  6.73E-04,  avg # of iterations =  5.7

     negative rho (up, down):  3.412E-08 0.000E+00

     total cpu time spent up to now is        8.1 secs

     total energy              =    -496.70948767 Ry
     estimated scf accuracy    <       0.41180627 Ry

     iteration #  4     ecut=    50.00 Ry     beta= 0.50
     Davidson diagonalization with overlap
     ethr =  6.73E-04,  avg # of iterations =  1.0

     negative rho (up, down):  3.444E-06 0.000E+00

     total cpu time spent up to now is        9.5 secs

     total energy              =    -496.79374479 Ry
     estimated scf accuracy    <       0.28749717 Ry

     iteration #  5     ecut=    50.00 Ry     beta= 0.50
     Davidson diagonalization with overlap
     ethr =  6.73E-04,  avg # of iterations =  2.1

     negative rho (up, down):  4.143E-08 0.000E+00

     total cpu time spent up to now is       11.0 secs

     total energy              =    -496.70797603 Ry
     estimated scf accuracy    <       0.58385881 Ry

     iteration #  6     ecut=    50.00 Ry     beta= 0.50
     Davidson diagonalization with overlap
     ethr =  6.73E-04,  avg # of iterations =  1.2

     negative rho (up, down):  5.177E-08 0.000E+00

     total cpu time spent up to now is       12.4 secs

     total energy              =    -496.69005953 Ry
     estimated scf accuracy    <       0.35679136 Ry

     iteration #  7     ecut=    50.00 Ry     beta= 0.50
     Davidson diagonalization with overlap
     ethr =  6.73E-04,  avg # of iterations =  1.6

     negative rho (up, down):  1.871E-07 0.000E+00

     total cpu time spent up to now is       14.0 secs

     total energy              =    -496.65882196 Ry
     estimated scf accuracy    <       0.21049406 Ry

     iteration #  8     ecut=    50.00 Ry     beta= 0.50
     Davidson diagonalization with overlap
     ethr =  6.73E-04,  avg # of iterations =  3.2

     negative rho (up, down):  6.058E-08 0.000E+00

     total cpu time spent up to now is       15.7 secs

     total energy              =    -496.69016676 Ry
     estimated scf accuracy    <       0.01349301 Ry

     iteration #  9     ecut=    50.00 Ry     beta= 0.50
     Davidson diagonalization with overlap
     ethr =  5.19E-05,  avg # of iterations =  4.5

     negative rho (up, down):  8.762E-08 0.000E+00

     total cpu time spent up to now is       17.7 secs

     total energy              =    -496.69280378 Ry
     estimated scf accuracy    <       0.03817735 Ry

     iteration # 10     ecut=    50.00 Ry     beta= 0.50
     Davidson diagonalization with overlap
     ethr =  5.19E-05,  avg # of iterations =  1.0

     negative rho (up, down):  2.358E-08 0.000E+00

     total cpu time spent up to now is       19.0 secs

     total energy              =    -496.68953216 Ry
     estimated scf accuracy    <       0.03478762 Ry

     iteration # 11     ecut=    50.00 Ry     beta= 0.50
     Davidson diagonalization with overlap
     ethr =  5.19E-05,  avg # of iterations =  2.1

     negative rho (up, down):  2.007E-08 0.000E+00

     total cpu time spent up to now is       20.6 secs

     total energy              =    -496.68564150 Ry
     estimated scf accuracy    <       0.01857555 Ry

     iteration # 12     ecut=    50.00 Ry     beta= 0.50
     Davidson diagonalization with overlap
     ethr =  5.19E-05,  avg # of iterations =  4.0

     total cpu time spent up to now is       22.6 secs

     total energy              =    -496.68941460 Ry
     estimated scf accuracy    <       0.00023521 Ry

     iteration # 13     ecut=    50.00 Ry     beta= 0.50
     Davidson diagonalization with overlap
     ethr =  9.05E-07,  avg # of iterations =  8.0

     negative rho (up, down):  2.955E-06 0.000E+00

     total cpu time spent up to now is       25.8 secs

     total energy              =    -496.68938765 Ry
     estimated scf accuracy    <       0.01382121 Ry

     iteration # 14     ecut=    50.00 Ry     beta= 0.50
     Davidson diagonalization with overlap
     ethr =  9.05E-07,  avg # of iterations =  6.6

     negative rho (up, down):  1.452E-06 0.000E+00

     total cpu time spent up to now is       30.1 secs

     total energy              =    -496.68940798 Ry
     estimated scf accuracy    <       0.00306911 Ry

     iteration # 15     ecut=    50.00 Ry     beta= 0.50
     Davidson diagonalization with overlap
     ethr =  9.05E-07,  avg # of iterations =  5.0

     negative rho (up, down):  4.486E-07 0.000E+00

     total cpu time spent up to now is       34.0 secs

     total energy              =    -496.68927072 Ry
     estimated scf accuracy    <       0.00054160 Ry

     iteration # 16     ecut=    50.00 Ry     beta= 0.50
     Davidson diagonalization with overlap
     ethr =  9.05E-07,  avg # of iterations =  6.0

     negative rho (up, down):  6.005E-06 0.000E+00

     total cpu time spent up to now is       38.4 secs

     total energy              =    -496.68947294 Ry
     estimated scf accuracy    <       0.00112150 Ry

     iteration # 17     ecut=    50.00 Ry     beta= 0.50
     Davidson diagonalization with overlap
     ethr =  9.05E-07,  avg # of iterations =  4.0

     negative rho (up, down):  3.201E-05 0.000E+00

     total cpu time spent up to now is       41.7 secs

     total energy              =    -496.68950066 Ry
     estimated scf accuracy    <       0.00018966 Ry

     iteration # 18     ecut=    50.00 Ry     beta= 0.50
     Davidson diagonalization with overlap
     ethr =  7.29E-07,  avg # of iterations =  3.4

     negative rho (up, down):  3.666E-05 0.000E+00

     total cpu time spent up to now is       44.6 secs

     total energy              =    -496.68952430 Ry
     estimated scf accuracy    <       0.00001418 Ry

     iteration # 19     ecut=    50.00 Ry     beta= 0.50
     Davidson diagonalization with overlap
     ethr =  5.45E-08,  avg # of iterations =  5.0

     negative rho (up, down):  3.169E-05 0.000E+00

     total cpu time spent up to now is       48.4 secs

     total energy              =    -496.68953344 Ry
     estimated scf accuracy    <       0.00000635 Ry

     iteration # 20     ecut=    50.00 Ry     beta= 0.50
     Davidson diagonalization with overlap
     ethr =  2.44E-08,  avg # of iterations =  1.6

     negative rho (up, down):  4.246E-05 0.000E+00

     total cpu time spent up to now is       51.0 secs

     total energy              =    -496.68953147 Ry
     estimated scf accuracy    <       0.00000262 Ry

     iteration # 21     ecut=    50.00 Ry     beta= 0.50
     Davidson diagonalization with overlap
     ethr =  1.01E-08,  avg # of iterations =  7.3

     negative rho (up, down):  4.782E-05 0.000E+00

     total cpu time spent up to now is       55.7 secs

     total energy              =    -496.68953340 Ry
     estimated scf accuracy    <       0.00005691 Ry

     iteration # 22     ecut=    50.00 Ry     beta= 0.50
     Davidson diagonalization with overlap
     ethr =  1.01E-08,  avg # of iterations =  5.5

     negative rho (up, down):  5.321E-05 0.000E+00

     total cpu time spent up to now is       59.5 secs

     total energy              =    -496.68953340 Ry
     estimated scf accuracy    <       0.00001480 Ry

     iteration # 23     ecut=    50.00 Ry     beta= 0.50
     Davidson diagonalization with overlap
     ethr =  1.01E-08,  avg # of iterations =  3.8

     negative rho (up, down):  5.527E-05 0.000E+00

     total cpu time spent up to now is       62.8 secs

     total energy              =    -496.68953361 Ry
     estimated scf accuracy    <       0.00000436 Ry

     iteration # 24     ecut=    50.00 Ry     beta= 0.50
     Davidson diagonalization with overlap
     ethr =  1.01E-08,  avg # of iterations =  1.8

     negative rho (up, down):  5.501E-05 0.000E+00

     total cpu time spent up to now is       65.3 secs

     total energy              =    -496.68953333 Ry
     estimated scf accuracy    <       0.00000243 Ry

     iteration # 25     ecut=    50.00 Ry     beta= 0.50
     Davidson diagonalization with overlap
     ethr =  9.36E-09,  avg # of iterations =  3.3

     negative rho (up, down):  5.539E-05 0.000E+00

     total cpu time spent up to now is       68.2 secs

     total energy              =    -496.68953355 Ry
     estimated scf accuracy    <       0.00000038 Ry

     iteration # 26     ecut=    50.00 Ry     beta= 0.50
     Davidson diagonalization with overlap
     ethr =  1.48E-09,  avg # of iterations =  4.2

     negative rho (up, down):  5.697E-05 0.000E+00

     total cpu time spent up to now is       71.4 secs

     End of self-consistent calculation

          k = 0.0000 0.0000 0.0000 (  5599 PWs)   bands (ev):

   -60.4671 -34.6093 -34.3851 -34.3812 -13.7268 -12.4280  -5.2547  -2.1882
    -2.1582  -1.4039  -1.1097  -0.9787   0.3493

          k = 0.0000 0.0962 0.0000 (  5565 PWs)   bands (ev):

   -60.4644 -34.6040 -34.4080 -34.3912 -13.6226 -12.3833  -5.1355  -2.4200
    -2.0485  -1.8360  -1.2709  -0.7203   0.3060

          k = 0.0000 0.1925 0.0000 (  5541 PWs)   bands (ev):

   -60.4571 -34.5895 -34.4808 -34.4078 -13.3263 -12.2561  -4.8358  -2.9542
    -2.4821  -1.7433  -1.6533  -0.6733   0.0965

          k = 0.0000 0.2887 0.0000 (  5536 PWs)   bands (ev):

   -60.4470 -34.5790 -34.5697 -34.4304 -12.8874 -12.0686  -4.6162  -3.4189
    -3.1625  -2.0854  -1.3179  -0.9393  -0.3101

          k = 0.0000 0.3849 0.0000 (  5536 PWs)   bands (ev):

   -60.4369 -34.6757 -34.5497 -34.4529 -12.3942 -11.8614  -4.8571  -3.8035
    -3.5289  -2.4510  -1.2380  -0.8971  -0.5462

          k = 0.0000 0.4811 0.0000 (  5526 PWs)   bands (ev):

   -60.4295 -34.7456 -34.5351 -34.4693 -11.9831 -11.6938  -5.2366  -4.2757
    -3.6336  -2.6890  -1.4217  -0.6102  -0.3744

          k = 0.0000-0.5774 0.0000 (  5550 PWs)   bands (ev):

   -60.4268 -34.7710 -34.5297 -34.4753 -11.8180 -11.6284  -5.3993  -4.4508
    -3.7113  -2.7711  -1.4798  -0.5141  -0.2105

          k = 0.0833 0.1443 0.0000 (  5545 PWs)   bands (ev):

   -60.4594 -34.5941 -34.4576 -34.4029 -13.4215 -12.2984  -4.9209  -2.7906
    -2.2793  -1.8552  -1.6274  -0.5589   0.1741

          k = 0.0833 0.2406 0.0000 (  5540 PWs)   bands (ev):

   -60.4507 -34.5769 -34.5389 -34.4267 -13.0528 -12.1401  -4.6295  -3.2785
    -2.8184  -2.1978  -1.5370  -0.6089  -0.1443

          k = 0.0833 0.3368 0.0000 (  5531 PWs)   bands (ev):

   -60.4406 -34.6318 -34.5570 -34.4537 -12.5830 -11.9395  -4.6478  -3.4975
    -3.4755  -2.5611  -1.2956  -0.9106  -0.4210

          k = 0.0833 0.4330 0.0000 (  5534 PWs)   bands (ev):

   -60.4319 -34.7113 -34.5397 -34.4769 -12.1224 -11.7463  -4.9937  -4.1177
    -3.5199  -2.7280  -1.2375  -1.1850  -0.3052

          k = 0.0833 0.5292 0.0000 (  5546 PWs)   bands (ev):

   -60.4268 -34.7569 -34.5297 -34.4903 -11.8242 -11.6244  -5.2591  -4.4792
    -3.6497  -2.7857  -1.4362  -1.0634  -0.0640

          k = 0.1667 0.2887 0.0000 (  5543 PWs)   bands (ev):

   -60.4419 -34.6104 -34.5595 -34.4599 -12.6481 -11.9698  -4.5409  -3.4294
    -3.2727  -2.7893  -1.5286  -0.6523  -0.3669

          k = 0.1667 0.3849 0.0000 (  5514 PWs)   bands (ev):

   -60.4332 -34.6760 -34.5422 -34.4976 -12.2011 -11.7760  -4.7316  -3.9845
    -3.3452  -2.9064  -1.8121  -0.9565  -0.3091

          k = 0.1667 0.4811 0.0000 (  5535 PWs)   bands (ev):

   -60.4268 -34.7225 -34.5296 -34.5263 -11.8355 -11.6176  -4.9314  -4.5302
    -3.4588  -2.8311  -1.9427  -1.3199  -0.0570

          k = 0.1667 0.5774 0.0000 (  5552 PWs)   bands (ev):

   -60.4245 -34.7393 -34.5370 -34.5249 -11.6911 -11.5553  -5.0038  -4.7291
    -3.5835  -2.7640  -1.9425  -1.4922   0.1211

          k = 0.2500 0.4330 0.0000 (  5531 PWs)   bands (ev):

   -60.4268 -34.7008 -34.5493 -34.5294 -11.8383 -11.6184  -4.7374  -4.5504
    -3.2111  -2.8506  -2.5180  -1.2582  -0.0842

          k = 0.2500 0.5292 0.0000 (  5540 PWs)   bands (ev):

   -60.4231 -34.7046 -34.5892 -34.5221 -11.6158 -11.5137  -4.9017  -4.6080
    -3.4362  -2.8181  -2.6655  -1.5848   0.2273

          k = 0.3333 0.5774 0.0000 (  5523 PWs)   bands (ev):

   -60.4217 -34.6782 -34.6325 -34.5192 -11.5312 -11.4773  -5.0397  -4.2147
    -3.6855  -3.1639  -2.4988  -1.7903   0.4169

          k =-0.0833 0.0481 0.0000 (  5565 PWs)   bands (ev):

   -60.4644 -34.6040 -34.4112 -34.3881 -13.6219 -12.3844  -5.1343  -2.3992
    -2.0693  -1.8818  -1.1844  -0.7571   0.3007

          k =-0.1667 0.0962 0.0000 (  5541 PWs)   bands (ev):

   -60.4570 -34.5893 -34.4843 -34.4049 -13.3235 -12.2607  -4.8307  -2.9361
    -2.5315  -1.7612  -1.5815  -0.6770   0.0740

          k =-0.2500 0.1443 0.0000 (  5536 PWs)   bands (ev):

   -60.4469 -34.5829 -34.5693 -34.4275 -12.8811 -12.0787  -4.6076  -3.4020
    -3.1932  -2.0278  -1.3297  -0.9373  -0.3522

          k =-0.3333 0.1925 0.0000 (  5536 PWs)   bands (ev):

   -60.4368 -34.6800 -34.5492 -34.4501 -12.3832 -11.8785  -4.8559  -3.8054
    -3.5048  -2.4030  -1.2540  -0.9034  -0.5924

          k =-0.4167 0.2406 0.0000 (  5526 PWs)   bands (ev):

   -60.4294 -34.7502 -34.5344 -34.4665 -11.9673 -11.7173  -5.2461  -4.2543
    -3.6065  -2.6465  -1.4567  -0.6121  -0.4088

          k = 0.5000-0.2887 0.0000 (  5550 PWs)   bands (ev):

   -60.4267 -34.7758 -34.5290 -34.4726 -11.8000 -11.6545  -5.4138  -4.4208
    -3.6839  -2.7303  -1.5222  -0.5090  -0.2419

          k = 0.1667 0.0000 0.0000 (  5545 PWs)   bands (ev):

   -60.4594 -34.5939 -34.4610 -34.3999 -13.4196 -12.3017  -4.9179  -2.7676
    -2.3312  -1.8764  -1.5516  -0.5729   0.1563

          k =-0.1667 0.1925 0.0000 (  5540 PWs)   bands (ev):

   -60.4507 -34.5768 -34.5406 -34.4254 -13.0506 -12.1436  -4.6253  -3.2720
    -2.8499  -2.1569  -1.5450  -0.6057  -0.1581

          k = 0.2500 0.0481 0.0000 (  5540 PWs)   bands (ev):

   -60.4506 -34.5766 -34.5433 -34.4232 -13.0478 -12.1485  -4.6231  -3.2536
    -2.8655  -2.1345  -1.5530  -0.5991  -0.1879

          k =-0.2500 0.2406 0.0000 (  5531 PWs)   bands (ev):

   -60.4406 -34.6347 -34.5567 -34.4517 -12.5769 -11.9489  -4.6446  -3.5178
    -3.4591  -2.5137  -1.3186  -0.9194  -0.4359

          k = 0.3333 0.0962 0.0000 (  5531 PWs)   bands (ev):

   -60.4405 -34.6367 -34.5565 -34.4503 -12.5740 -11.9545  -4.6425  -3.5001
    -3.4502  -2.5351  -1.3015  -0.9020  -0.4743

          k =-0.3333 0.2887 0.0000 (  5534 PWs)   bands (ev):

   -60.4318 -34.7151 -34.5392 -34.4745 -12.1113 -11.7629  -4.9997  -4.1129
    -3.4927  -2.6821  -1.2683  -1.2166  -0.3113

          k = 0.4167 0.1443 0.0000 (  5534 PWs)   bands (ev):

   -60.4318 -34.7164 -34.5391 -34.4737 -12.1089 -11.7676  -4.9968  -4.0934
    -3.4954  -2.7105  -1.2492  -1.1874  -0.3421

          k =-0.4167 0.3368 0.0000 (  5546 PWs)   bands (ev):

   -60.4267 -34.7613 -34.5291 -34.4875 -11.8086 -11.6471  -5.2725  -4.4549
    -3.6223  -2.7435  -1.4802  -1.0756  -0.0770

          k = 0.5000 0.1925 0.0000 (  5546 PWs)   bands (ev):

   -60.4267 -34.7617 -34.5290 -34.4873 -11.8077 -11.6489  -5.2713  -4.4473
    -3.6248  -2.7561  -1.4714  -1.0627  -0.0877

          k = 0.3333 0.0000 0.0000 (  5543 PWs)   bands (ev):

   -60.4419 -34.6147 -34.5592 -34.4565 -12.6420 -11.9808  -4.5376  -3.4041
    -3.2550  -2.7981  -1.5341  -0.6359  -0.4111

          k =-0.2500 0.3368 0.0000 (  5514 PWs)   bands (ev):

   -60.4332 -34.6778 -34.5421 -34.4964 -12.1972 -11.7819  -4.7339  -3.9870
    -3.3290  -2.8859  -1.8304  -0.9681  -0.3108

          k = 0.4167 0.0481 0.0000 (  5514 PWs)   bands (ev):

   -60.4331 -34.6813 -34.5418 -34.4937 -12.1915 -11.7927  -4.7297  -3.9489
    -3.3227  -2.9221  -1.8201  -0.9500  -0.3346

          k =-0.3333 0.3849 0.0000 (  5535 PWs)   bands (ev):

   -60.4268 -34.7259 -34.5292 -34.5240 -11.8266 -11.6308  -4.9410  -4.5180
    -3.4334  -2.8013  -1.9590  -1.3517  -0.0629

          k = 0.5000 0.0962 0.0000 (  5535 PWs)   bands (ev):

   -60.4267 -34.7278 -34.5290 -34.5225 -11.8231 -11.6377  -4.9373  -4.4956
    -3.4421  -2.8274  -1.9406  -1.3366  -0.0712

          k =-0.4167 0.4330 0.0000 (  5552 PWs)   bands (ev):

   -60.4244 -34.7439 -34.5338 -34.5245 -11.6788 -11.5742  -5.0164  -4.7027
    -3.5625  -2.7361  -1.9433  -1.5309   0.1110

          k = 0.5000 0.0000 0.0000 (  5531 PWs)   bands (ev):

   -60.4267 -34.7055 -34.5456 -34.5291 -11.8307 -11.6320  -4.7353  -4.5176
    -3.2163  -2.8699  -2.5027  -1.2546  -0.0903

          k =-0.3333 0.4811 0.0000 (  5540 PWs)   bands (ev):

   -60.4231 -34.7074 -34.5869 -34.5219 -11.6113 -11.5208  -4.8918  -4.6154
    -3.4223  -2.8221  -2.6505  -1.6050   0.2248

          k = 0.5833 0.0481 0.0000 (  5540 PWs)   bands (ev):

   -60.4230 -34.7096 -34.5851 -34.5218 -11.6083 -11.5262  -4.8795  -4.6127
    -3.4386  -2.8039  -2.6590  -1.6028   0.2259

     highest occupied level (ev):     0.4169

!    total energy              =    -496.68953367 Ry

     total all-electron energy =     -9695.020920 Ry
     estimated scf accuracy    <          9.1E-10 Ry

     The total energy is the sum of the following terms:
     one-electron contribution =    -780.65492960 Ry
     hartree contribution      =     394.33765701 Ry
     xc contribution           =     -42.59086080 Ry
     ewald contribution        =     239.17117216 Ry
     one-center paw contrib.   =    -306.95257244 Ry

     convergence has been achieved in  26 iterations

     negative rho (up, down):  5.697E-05 0.000E+00

     Forces acting on atoms (cartesian axes, Ry/au):

     atom    1 type  1   force =     0.00000000    0.01152817    0.00000000
     atom    2 type  2   force =     0.00000000   -0.00576409    0.00673115
     atom    3 type  2   force =     0.00000000   -0.00576409   -0.00673115

     Total force =     0.017028     Total SCF correction =     0.000071


     Computing stress (Cartesian axis) and pressure


     negative rho (up, down):  5.697E-05 0.000E+00
          total   stress  (Ry/bohr**3)                   (kbar)     P=        8.90
   0.00007924   0.00000000   0.00000000           11.66        0.00        0.00
   0.00000000   0.00006362   0.00000000            0.00        9.36        0.00
   0.00000000   0.00000000   0.00003875            0.00        0.00        5.70


     BFGS Geometry Optimization
     Energy error            =      0.0E+00
     Gradient error          =      1.2E-02
     Cell gradient error     =      7.9E-05


     number of scf cycles    =   1
     number of bfgs steps    =   0

     enthalpy new            =    -496.6895336682 Ry

     new trust radius        =       0.0120652729 bohr
     new conv_thr            =       0.0000000100 Ry

     new unit-cell volume =    931.59636 a.u.^3 (   138.04834 Ang^3 )
     density =      1.92543 g/cm^3

CELL_PARAMETERS (alat=  5.98300000)
   1.001980972   0.000000000   0.000000000
  -0.500990486   0.867402804   0.000000000
   0.000000000   0.000000000   5.004843254

ATOMIC_POSITIONS (alat)
Mo            0.0000000000        0.0019298861        0.0000000000
S             0.0000000000        0.5818856946        0.4963572822
S             0.0000000000        0.5818856946       -0.4963572822



     Writing output data file ./MoS2.save/
     NEW-OLD atomic charge density approx. for the potential

     Check: negative core charge=   -0.000001

     negative rho (up, down):  5.101E-05 0.000E+00
     extrapolated charge   26.11767, renormalised to   26.00000

     total cpu time spent up to now is       80.6 secs

     Self-consistent Calculation

     iteration #  1     ecut=    50.00 Ry     beta= 0.50
     Davidson diagonalization with overlap
     ethr =  1.00E-06,  avg # of iterations = 13.3

     negative rho (up, down):  3.947E-03 0.000E+00

     total cpu time spent up to now is       88.7 secs

     total energy              =    -496.65389410 Ry
     estimated scf accuracy    <       0.10730838 Ry

     iteration #  2     ecut=    50.00 Ry     beta= 0.50
     Davidson diagonalization with overlap
     ethr =  4.13E-04,  avg # of iterations =  4.5

     negative rho (up, down):  3.320E-03 0.000E+00

     total cpu time spent up to now is       92.2 secs

     total energy              =    -496.69077114 Ry
     estimated scf accuracy    <       0.00969115 Ry

     iteration #  3     ecut=    50.00 Ry     beta= 0.50
     Davidson diagonalization with overlap
     ethr =  3.73E-05,  avg # of iterations =  3.6

     negative rho (up, down):  1.558E-03 0.000E+00

     total cpu time spent up to now is       95.2 secs

     total energy              =    -496.68839681 Ry
     estimated scf accuracy    <       0.01502872 Ry

     iteration #  4     ecut=    50.00 Ry     beta= 0.50
     Davidson diagonalization with overlap
     ethr =  3.73E-05,  avg # of iterations =  3.2

     negative rho (up, down):  1.251E-03 0.000E+00

     total cpu time spent up to now is       98.2 secs

     total energy              =    -496.68976759 Ry
     estimated scf accuracy    <       0.00217043 Ry

     iteration #  5     ecut=    50.00 Ry     beta= 0.50
     Davidson diagonalization with overlap
     ethr =  8.35E-06,  avg # of iterations =  2.9

     negative rho (up, down):  1.035E-03 0.000E+00

     total cpu time spent up to now is      100.9 secs

     total energy              =    -496.69005168 Ry
     estimated scf accuracy    <       0.00111212 Ry

     iteration #  6     ecut=    50.00 Ry     beta= 0.50
     Davidson diagonalization with overlap
     ethr =  4.28E-06,  avg # of iterations =  1.3

     negative rho (up, down):  4.025E-04 0.000E+00

     total cpu time spent up to now is      103.3 secs

     total energy              =    -496.69000017 Ry
     estimated scf accuracy    <       0.00125114 Ry

     iteration #  7     ecut=    50.00 Ry     beta= 0.50
     Davidson diagonalization with overlap
     ethr =  4.28E-06,  avg # of iterations =  1.0

     negative rho (up, down):  2.185E-04 0.000E+00

     total cpu time spent up to now is      105.8 secs

     total energy              =    -496.68993137 Ry
     estimated scf accuracy    <       0.00091672 Ry

     iteration #  8     ecut=    50.00 Ry     beta= 0.50
     Davidson diagonalization with overlap
     ethr =  3.53E-06,  avg # of iterations =  1.1

     negative rho (up, down):  1.280E-04 0.000E+00

     total cpu time spent up to now is      108.2 secs

     total energy              =    -496.68990844 Ry
     estimated scf accuracy    <       0.00059197 Ry

     iteration #  9     ecut=    50.00 Ry     beta= 0.50
     Davidson diagonalization with overlap
     ethr =  2.28E-06,  avg # of iterations =  1.6

     negative rho (up, down):  4.397E-05 0.000E+00

     total cpu time spent up to now is      110.7 secs

     total energy              =    -496.68990471 Ry
     estimated scf accuracy    <       0.00034652 Ry

     iteration # 10     ecut=    50.00 Ry     beta= 0.50
     Davidson diagonalization with overlap
     ethr =  1.33E-06,  avg # of iterations =  3.1

     negative rho (up, down):  3.668E-07 0.000E+00

     total cpu time spent up to now is      113.4 secs

     total energy              =    -496.68988475 Ry
     estimated scf accuracy    <       0.00013310 Ry

     iteration # 11     ecut=    50.00 Ry     beta= 0.50
     Davidson diagonalization with overlap
     ethr =  5.12E-07,  avg # of iterations =  4.7

     negative rho (up, down):  2.901E-07 0.000E+00

     total cpu time spent up to now is      117.1 secs

     total energy              =    -496.68994627 Ry
     estimated scf accuracy    <       0.00006566 Ry

     iteration # 12     ecut=    50.00 Ry     beta= 0.50
     Davidson diagonalization with overlap
     ethr =  2.53E-07,  avg # of iterations =  1.0

     negative rho (up, down):  2.727E-06 0.000E+00

     total cpu time spent up to now is      119.4 secs

     total energy              =    -496.68992242 Ry
     estimated scf accuracy    <       0.00007079 Ry

     iteration # 13     ecut=    50.00 Ry     beta= 0.50
     Davidson diagonalization with overlap
     ethr =  2.53E-07,  avg # of iterations =  3.8

     negative rho (up, down):  9.534E-06 0.000E+00

     total cpu time spent up to now is      122.6 secs

     total energy              =    -496.68994006 Ry
     estimated scf accuracy    <       0.00000214 Ry

     iteration # 14     ecut=    50.00 Ry     beta= 0.50
     Davidson diagonalization with overlap
     ethr =  8.24E-09,  avg # of iterations =  6.0

     negative rho (up, down):  9.390E-06 0.000E+00

     total cpu time spent up to now is      127.0 secs

     total energy              =    -496.68994083 Ry
     estimated scf accuracy    <       0.00002764 Ry

     iteration # 15     ecut=    50.00 Ry     beta= 0.50
     Davidson diagonalization with overlap
     ethr =  8.24E-09,  avg # of iterations =  2.8

     negative rho (up, down):  2.567E-05 0.000E+00

     total cpu time spent up to now is      129.9 secs

     total energy              =    -496.68993332 Ry
     estimated scf accuracy    <       0.00001725 Ry

     iteration # 16     ecut=    50.00 Ry     beta= 0.50
     Davidson diagonalization with overlap
     ethr =  8.24E-09,  avg # of iterations =  7.2

     negative rho (up, down):  3.486E-05 0.000E+00

     total cpu time spent up to now is      134.9 secs

     total energy              =    -496.68993883 Ry
     estimated scf accuracy    <       0.00001938 Ry

     iteration # 17     ecut=    50.00 Ry     beta= 0.50
     Davidson diagonalization with overlap
     ethr =  8.24E-09,  avg # of iterations =  4.6

     negative rho (up, down):  4.513E-05 0.000E+00

     total cpu time spent up to now is      138.6 secs

     total energy              =    -496.68993885 Ry
     estimated scf accuracy    <       0.00000313 Ry

     iteration # 18     ecut=    50.00 Ry     beta= 0.50
     Davidson diagonalization with overlap
     ethr =  8.24E-09,  avg # of iterations =  4.2

     negative rho (up, down):  4.568E-05 0.000E+00

     total cpu time spent up to now is      142.0 secs

     total energy              =    -496.68993966 Ry
     estimated scf accuracy    <       0.00000021 Ry

     iteration # 19     ecut=    50.00 Ry     beta= 0.50
     Davidson diagonalization with overlap
     ethr =  8.26E-10,  avg # of iterations =  3.4

     negative rho (up, down):  4.544E-05 0.000E+00

     total cpu time spent up to now is      145.0 secs

     total energy              =    -496.68993956 Ry
     estimated scf accuracy    <       0.00000034 Ry

     iteration # 20     ecut=    50.00 Ry     beta= 0.50
     Davidson diagonalization with overlap
     ethr =  8.26E-10,  avg # of iterations =  4.6

     negative rho (up, down):  4.819E-05 0.000E+00

     total cpu time spent up to now is      148.2 secs

     total energy              =    -496.68993963 Ry
     estimated scf accuracy    <       0.00000002 Ry

     iteration # 21     ecut=    50.00 Ry     beta= 0.50
     Davidson diagonalization with overlap
     ethr =  8.51E-11,  avg # of iterations =  3.4

     negative rho (up, down):  4.887E-05 0.000E+00

     total cpu time spent up to now is      150.6 secs

     total energy              =    -496.68993962 Ry
     estimated scf accuracy    <       0.00000003 Ry

     iteration # 22     ecut=    50.00 Ry     beta= 0.50
     Davidson diagonalization with overlap
     ethr =  8.51E-11,  avg # of iterations =  3.2

     negative rho (up, down):  5.035E-05 0.000E+00

     total cpu time spent up to now is      152.8 secs

     End of self-consistent calculation

          k = 0.0000 0.0000 0.0000 (  5599 PWs)   bands (ev):

   -60.5034 -34.6395 -34.4199 -34.4180 -13.7172 -12.4397  -5.2481  -2.1752
    -2.1687  -1.4290  -1.0805  -1.0316   0.3172

          k = 0.0000 0.0961 0.0000 (  5565 PWs)   bands (ev):

   -60.5007 -34.6343 -34.4443 -34.4259 -13.6137 -12.3953  -5.1288  -2.4075
    -2.0597  -1.8679  -1.2445  -0.7608   0.2722

          k = 0.0000 0.1921 0.0000 (  5541 PWs)   bands (ev):

   -60.4936 -34.6201 -34.5156 -34.4422 -13.3191 -12.2690  -4.8274  -2.9450
    -2.5088  -1.7565  -1.6318  -0.7044   0.0581

          k = 0.0000 0.2882 0.0000 (  5536 PWs)   bands (ev):

   -60.4838 -34.6118 -34.6007 -34.4644 -12.8826 -12.0830  -4.6024  -3.4179
    -3.1777  -2.0675  -1.3337  -0.9693  -0.3512

          k = 0.0000 0.3843 0.0000 (  5536 PWs)   bands (ev):

   -60.4739 -34.7067 -34.5812 -34.4865 -12.3919 -11.8777  -4.8451  -3.8059
    -3.5282  -2.4349  -1.2743  -0.9151  -0.5867

          k = 0.0000 0.4804 0.0000 (  5526 PWs)   bands (ev):

   -60.4667 -34.7752 -34.5669 -34.5026 -11.9825 -11.7120  -5.2320  -4.2688
    -3.6260  -2.6738  -1.4644  -0.6294  -0.4146

          k = 0.0000-0.5764 0.0000 (  5550 PWs)   bands (ev):

   -60.4641 -34.8002 -34.5616 -34.5085 -11.8180 -11.6473  -5.3982  -4.4407
    -3.7003  -2.7562  -1.5249  -0.5336  -0.2506

          k = 0.0832 0.1441 0.0000 (  5545 PWs)   bands (ev):

   -60.4958 -34.6246 -34.4923 -34.4378 -13.4143 -12.3103  -4.9143  -2.7840
    -2.2980  -1.8631  -1.6201  -0.5909   0.1401

          k = 0.0832 0.2402 0.0000 (  5540 PWs)   bands (ev):

   -60.4874 -34.6078 -34.5723 -34.4609 -13.0478 -12.1532  -4.6194  -3.2746
    -2.8384  -2.1827  -1.5504  -0.6377  -0.1821

          k = 0.0832 0.3363 0.0000 (  5531 PWs)   bands (ev):

   -60.4775 -34.6636 -34.5883 -34.4872 -12.5805 -11.9543  -4.6341  -3.5031
    -3.4772  -2.5513  -1.3149  -0.9418  -0.4559

          k = 0.0832 0.4323 0.0000 (  5534 PWs)   bands (ev):

   -60.4690 -34.7416 -34.5714 -34.5100 -12.1221 -11.7631  -4.9860  -4.1113
    -3.5168  -2.7195  -1.2757  -1.2090  -0.3354

          k = 0.0832 0.5284 0.0000 (  5546 PWs)   bands (ev):

   -60.4641 -34.7863 -34.5616 -34.5230 -11.8251 -11.6426  -5.2575  -4.4668
    -3.6405  -2.7754  -1.4807  -1.0869  -0.0951

          k = 0.1663 0.2882 0.0000 (  5543 PWs)   bands (ev):

   -60.4789 -34.6420 -34.5909 -34.4934 -12.6472 -11.9822  -4.5287  -3.4353
    -3.2682  -2.7977  -1.5407  -0.6819  -0.3974

          k = 0.1663 0.3843 0.0000 (  5514 PWs)   bands (ev):

   -60.4703 -34.7067 -34.5740 -34.5301 -12.2028 -11.7901  -4.7213  -3.9734
    -3.3502  -2.9128  -1.8291  -0.9894  -0.3344

          k = 0.1663 0.4804 0.0000 (  5535 PWs)   bands (ev):

   -60.4641 -34.7525 -34.5616 -34.5581 -11.8390 -11.6336  -4.9279  -4.5139
    -3.4565  -2.8334  -1.9610  -1.3595  -0.0819

          k = 0.1663 0.5764 0.0000 (  5552 PWs)   bands (ev):

   -60.4618 -34.7691 -34.5685 -34.5571 -11.6953 -11.5721  -5.0044  -4.7107
    -3.5766  -2.7628  -1.9606  -1.5365   0.0948

          k = 0.2495 0.4323 0.0000 (  5531 PWs)   bands (ev):

   -60.4641 -34.7305 -34.5808 -34.5616 -11.8450 -11.6308  -4.7300  -4.5341
    -3.2263  -2.8658  -2.5220  -1.2878  -0.1054

          k = 0.2495 0.5284 0.0000 (  5540 PWs)   bands (ev):

   -60.4605 -34.7348 -34.6194 -34.5544 -11.6239 -11.5274  -4.8826  -4.6076
    -3.4380  -2.8285  -2.6757  -1.6207   0.2044

          k = 0.3327 0.5764 0.0000 (  5523 PWs)   bands (ev):

   -60.4592 -34.7071 -34.6632 -34.5518 -11.5431 -11.4873  -5.0249  -4.2153
    -3.6855  -3.1762  -2.5160  -1.8169   0.3929

          k =-0.0832 0.0480 0.0000 (  5565 PWs)   bands (ev):

   -60.5007 -34.6343 -34.4458 -34.4244 -13.6135 -12.3957  -5.1284  -2.4027
    -2.0642  -1.8845  -1.2112  -0.7760   0.2701

          k =-0.1663 0.0961 0.0000 (  5541 PWs)   bands (ev):

   -60.4936 -34.6201 -34.5171 -34.4407 -13.3184 -12.2709  -4.8258  -2.9406
    -2.5271  -1.7599  -1.6038  -0.7069   0.0493

          k =-0.2495 0.1441 0.0000 (  5536 PWs)   bands (ev):

   -60.4838 -34.6134 -34.6006 -34.4628 -12.8810 -12.0872  -4.5995  -3.4137
    -3.1894  -2.0439  -1.3348  -0.9694  -0.3675

          k =-0.3327 0.1921 0.0000 (  5536 PWs)   bands (ev):

   -60.4740 -34.7083 -34.5811 -34.4849 -12.3889 -11.8848  -4.8450  -3.8069
    -3.5213  -2.4143  -1.2809  -0.9130  -0.6057

          k =-0.4158 0.2402 0.0000 (  5526 PWs)   bands (ev):

   -60.4668 -34.7769 -34.5667 -34.5010 -11.9782 -11.7216  -5.2360  -4.2609
    -3.6171  -2.6548  -1.4782  -0.6240  -0.4312

          k = 0.4990-0.2882 0.0000 (  5550 PWs)   bands (ev):

   -60.4641 -34.8019 -34.5614 -34.5068 -11.8130 -11.6581  -5.4040  -4.4294
    -3.6909  -2.7376  -1.5416  -0.5260  -0.2659

          k = 0.1663 0.0000 0.0000 (  5545 PWs)   bands (ev):

   -60.4958 -34.6246 -34.4938 -34.4364 -13.4139 -12.3117  -4.9135  -2.7776
    -2.3172  -1.8682  -1.5917  -0.5964   0.1333

          k =-0.1663 0.1921 0.0000 (  5540 PWs)   bands (ev):

   -60.4874 -34.6078 -34.5731 -34.4601 -13.0472 -12.1546  -4.6180  -3.2734
    -2.8504  -2.1667  -1.5517  -0.6367  -0.1877

          k = 0.2495 0.0480 0.0000 (  5540 PWs)   bands (ev):

   -60.4874 -34.6077 -34.5741 -34.4591 -13.0466 -12.1566  -4.6174  -3.2670
    -2.8556  -2.1585  -1.5541  -0.6346  -0.1983

          k =-0.2495 0.2402 0.0000 (  5531 PWs)   bands (ev):

   -60.4775 -34.6648 -34.5883 -34.4861 -12.5789 -11.9582  -4.6331  -3.5111
    -3.4730  -2.5321  -1.3206  -0.9449  -0.4622

          k = 0.3327 0.0961 0.0000 (  5531 PWs)   bands (ev):

   -60.4776 -34.6654 -34.5882 -34.4855 -12.5782 -11.9605  -4.6321  -3.5042
    -3.4696  -2.5397  -1.3159  -0.9391  -0.4745

          k =-0.3327 0.2882 0.0000 (  5534 PWs)   bands (ev):

   -60.4690 -34.7431 -34.5713 -34.5085 -12.1190 -11.7699  -4.9887  -4.1096
    -3.5083  -2.7006  -1.2870  -1.2176  -0.3386

          k = 0.4158 0.1441 0.0000 (  5534 PWs)   bands (ev):

   -60.4690 -34.7434 -34.5713 -34.5082 -12.1186 -11.7718  -4.9871  -4.1023
    -3.5092  -2.7103  -1.2808  -1.2088  -0.3479

          k =-0.4158 0.3363 0.0000 (  5546 PWs)   bands (ev):

   -60.4641 -34.7879 -34.5615 -34.5215 -11.8208 -11.6519  -5.2630  -4.4575
    -3.6312  -2.7573  -1.4973  -1.0885  -0.1011

          k = 0.4990 0.1921 0.0000 (  5546 PWs)   bands (ev):

   -60.4641 -34.7880 -34.5615 -34.5214 -11.8207 -11.6527  -5.2623  -4.4547
    -3.6322  -2.7616  -1.4945  -1.0846  -0.1041

          k = 0.3327 0.0000 0.0000 (  5543 PWs)   bands (ev):

   -60.4789 -34.6435 -34.5909 -34.4920 -12.6458 -11.9867  -4.5274  -3.4264
    -3.2612  -2.8004  -1.5433  -0.6764  -0.4120

          k =-0.2495 0.3363 0.0000 (  5514 PWs)   bands (ev):

   -60.4703 -34.7074 -34.5740 -34.5294 -12.2017 -11.7926  -4.7223  -3.9745
    -3.3454  -2.9047  -1.8342  -0.9935  -0.3354

          k = 0.4158 0.0480 0.0000 (  5514 PWs)   bands (ev):

   -60.4704 -34.7085 -34.5739 -34.5284 -12.2003 -11.7970  -4.7199  -3.9600
    -3.3429  -2.9171  -1.8325  -0.9876  -0.3419

          k =-0.3327 0.3843 0.0000 (  5535 PWs)   bands (ev):

   -60.4641 -34.7538 -34.5616 -34.5568 -11.8365 -11.6390  -4.9319  -4.5091
    -3.4481  -2.8215  -1.9647  -1.3710  -0.0848

          k = 0.4990 0.0961 0.0000 (  5535 PWs)   bands (ev):

   -60.4641 -34.7544 -34.5615 -34.5563 -11.8357 -11.6418  -4.9296  -4.5006
    -3.4512  -2.8303  -1.9595  -1.3662  -0.0862

          k =-0.4158 0.4323 0.0000 (  5552 PWs)   bands (ev):

   -60.4618 -34.7707 -34.5669 -34.5570 -11.6919 -11.5798  -5.0092  -4.7004
    -3.5694  -2.7509  -1.9592  -1.5511   0.0906

          k = 0.4990 0.0000 0.0000 (  5531 PWs)   bands (ev):

   -60.4641 -34.7320 -34.5793 -34.5615 -11.8432 -11.6363  -4.7280  -4.5215
    -3.2279  -2.8719  -2.5181  -1.2870  -0.1060

          k =-0.3327 0.4804 0.0000 (  5540 PWs)   bands (ev):

   -60.4605 -34.7359 -34.6184 -34.5544 -11.6226 -11.5303  -4.8787  -4.6104
    -3.4335  -2.8288  -2.6697  -1.6282   0.2032

          k = 0.5822 0.0480 0.0000 (  5540 PWs)   bands (ev):

   -60.4605 -34.7365 -34.6177 -34.5544 -11.6219 -11.5325  -4.8739  -4.6087
    -3.4393  -2.8231  -2.6724  -1.6278   0.2044

     highest occupied level (ev):     0.3929

!    total energy              =    -496.68993962 Ry

     total all-electron energy =     -9695.021326 Ry
     estimated scf accuracy    <          2.7E-09 Ry

     The total energy is the sum of the following terms:
     one-electron contribution =    -778.14994394 Ry
     hartree contribution      =     393.05772389 Ry
     xc contribution           =     -42.57440801 Ry
     ewald contribution        =     237.92803476 Ry
     one-center paw contrib.   =    -306.95134631 Ry

     convergence has been achieved in  22 iterations

     negative rho (up, down):  5.035E-05 0.000E+00

     Forces acting on atoms (cartesian axes, Ry/au):

     atom    1 type  1   force =     0.00000000    0.00407919    0.00000000
     atom    2 type  2   force =     0.00000000   -0.00203959    0.00148575
     atom    3 type  2   force =     0.00000000   -0.00203959   -0.00148575

     Total force =     0.005420     Total SCF correction =     0.000135


     Computing stress (Cartesian axis) and pressure


     negative rho (up, down):  5.035E-05 0.000E+00
          total   stress  (Ry/bohr**3)                   (kbar)     P=        4.81
   0.00004826   0.00000000   0.00000000            7.10        0.00        0.00
   0.00000000   0.00004471   0.00000000            0.00        6.58        0.00
   0.00000000   0.00000000   0.00000520            0.00        0.00        0.77

     Energy error            =      4.1E-04
     Gradient error          =      4.1E-03
     Cell gradient error     =      4.8E-05


     number of scf cycles    =   2
     number of bfgs steps    =   1

     enthalpy old            =    -496.6895336682 Ry
     enthalpy new            =    -496.6899396189 Ry

     CASE: enthalpy_new < enthalpy_old

     new trust radius        =       0.0146223170 bohr
     new conv_thr            =       0.0000000004 Ry

     new unit-cell volume =    936.19806 a.u.^3 (   138.73024 Ang^3 )
     density =      1.91597 g/cm^3

CELL_PARAMETERS (alat=  5.98300000)
   1.004381086   0.000000000   0.000000000
  -0.502190543   0.869304907   0.000000000
   0.000000000   0.000000000   5.006567438

ATOMIC_POSITIONS (alat)
Mo            0.0000000000        0.0033866068        0.0000000000
S             0.0000000000        0.5824354506        0.4971039556
S             0.0000000000        0.5824354506       -0.4971039556



     Writing output data file ./MoS2.save/
     NEW-OLD atomic charge density approx. for the potential

     Check: negative core charge=   -0.000001

     negative rho (up, down):  4.484E-05 0.000E+00
     extrapolated charge   26.12779, renormalised to   26.00000

     total cpu time spent up to now is      157.3 secs

     Self-consistent Calculation

     iteration #  1     ecut=    50.00 Ry     beta= 0.50
     Davidson diagonalization with overlap
     ethr =  1.00E-06,  avg # of iterations = 13.1

     negative rho (up, down):  4.423E-03 0.000E+00

     total cpu time spent up to now is      162.1 secs

     total energy              =    -496.64753171 Ry
     estimated scf accuracy    <       0.12661637 Ry

     iteration #  2     ecut=    50.00 Ry     beta= 0.50
     Davidson diagonalization with overlap
     ethr =  4.87E-04,  avg # of iterations =  4.5

     negative rho (up, down):  3.711E-03 0.000E+00

     total cpu time spent up to now is      164.1 secs

     total energy              =    -496.69106393 Ry
     estimated scf accuracy    <       0.01141420 Ry

     iteration #  3     ecut=    50.00 Ry     beta= 0.50
     Davidson diagonalization with overlap
     ethr =  4.39E-05,  avg # of iterations =  3.7

     negative rho (up, down):  1.771E-03 0.000E+00

     total cpu time spent up to now is      165.9 secs

     total energy              =    -496.68829035 Ry
     estimated scf accuracy    <       0.01823862 Ry

     iteration #  4     ecut=    50.00 Ry     beta= 0.50
     Davidson diagonalization with overlap
     ethr =  4.39E-05,  avg # of iterations =  3.3

     negative rho (up, down):  1.396E-03 0.000E+00

     total cpu time spent up to now is      167.6 secs

     total energy              =    -496.68987157 Ry
     estimated scf accuracy    <       0.00266406 Ry

     iteration #  5     ecut=    50.00 Ry     beta= 0.50
     Davidson diagonalization with overlap
     ethr =  1.02E-05,  avg # of iterations =  3.0

     negative rho (up, down):  1.141E-03 0.000E+00

     total cpu time spent up to now is      169.8 secs

     total energy              =    -496.69022666 Ry
     estimated scf accuracy    <       0.00125530 Ry

     iteration #  6     ecut=    50.00 Ry     beta= 0.50
     Davidson diagonalization with overlap
     ethr =  4.83E-06,  avg # of iterations =  1.3

     negative rho (up, down):  4.747E-04 0.000E+00

     total cpu time spent up to now is      171.7 secs

     total energy              =    -496.69015971 Ry
     estimated scf accuracy    <       0.00143107 Ry

     iteration #  7     ecut=    50.00 Ry     beta= 0.50
     Davidson diagonalization with overlap
     ethr =  4.83E-06,  avg # of iterations =  1.0

     negative rho (up, down):  2.578E-04 0.000E+00

     total cpu time spent up to now is      173.7 secs

     total energy              =    -496.69009758 Ry
     estimated scf accuracy    <       0.00101058 Ry

     iteration #  8     ecut=    50.00 Ry     beta= 0.50
     Davidson diagonalization with overlap
     ethr =  3.89E-06,  avg # of iterations =  1.1

     negative rho (up, down):  1.384E-04 0.000E+00

     total cpu time spent up to now is      175.6 secs

     total energy              =    -496.69006289 Ry
     estimated scf accuracy    <       0.00069700 Ry

     iteration #  9     ecut=    50.00 Ry     beta= 0.50
     Davidson diagonalization with overlap
     ethr =  2.68E-06,  avg # of iterations =  1.9

     negative rho (up, down):  7.422E-05 0.000E+00

     total cpu time spent up to now is      177.6 secs

     total energy              =    -496.69007623 Ry
     estimated scf accuracy    <       0.00038566 Ry

     iteration # 10     ecut=    50.00 Ry     beta= 0.50
     Davidson diagonalization with overlap
     ethr =  1.48E-06,  avg # of iterations =  1.9

     negative rho (up, down):  1.403E-07 0.000E+00

     total cpu time spent up to now is      179.1 secs

     total energy              =    -496.69002068 Ry
     estimated scf accuracy    <       0.00025403 Ry

     iteration # 11     ecut=    50.00 Ry     beta= 0.50
     Davidson diagonalization with overlap
     ethr =  9.77E-07,  avg # of iterations =  4.4

     negative rho (up, down):  1.013E-07 0.000E+00

     total cpu time spent up to now is      181.1 secs

     total energy              =    -496.69010241 Ry
     estimated scf accuracy    <       0.00003535 Ry

     iteration # 12     ecut=    50.00 Ry     beta= 0.50
     Davidson diagonalization with overlap
     ethr =  1.36E-07,  avg # of iterations =  4.0

     negative rho (up, down):  7.573E-07 0.000E+00

     total cpu time spent up to now is      182.9 secs

     total energy              =    -496.69008227 Ry
     estimated scf accuracy    <       0.00008253 Ry

     iteration # 13     ecut=    50.00 Ry     beta= 0.50
     Davidson diagonalization with overlap
     ethr =  1.36E-07,  avg # of iterations =  4.8

     negative rho (up, down):  8.715E-06 0.000E+00

     total cpu time spent up to now is      184.9 secs

     total energy              =    -496.69010073 Ry
     estimated scf accuracy    <       0.00000181 Ry

     iteration # 14     ecut=    50.00 Ry     beta= 0.50
     Davidson diagonalization with overlap
     ethr =  6.96E-09,  avg # of iterations =  7.3

     negative rho (up, down):  8.710E-06 0.000E+00

     total cpu time spent up to now is      187.9 secs

     total energy              =    -496.69010766 Ry
     estimated scf accuracy    <       0.00005931 Ry

     iteration # 15     ecut=    50.00 Ry     beta= 0.50
     Davidson diagonalization with overlap
     ethr =  6.96E-09,  avg # of iterations =  1.0

     negative rho (up, down):  4.167E-06 0.000E+00

     total cpu time spent up to now is      189.3 secs

     total energy              =    -496.69009668 Ry
     estimated scf accuracy    <       0.00006083 Ry

     iteration # 16     ecut=    50.00 Ry     beta= 0.50
     Davidson diagonalization with overlap
     ethr =  6.96E-09,  avg # of iterations =  6.1

     negative rho (up, down):  2.469E-05 0.000E+00

     total cpu time spent up to now is      191.8 secs

     total energy              =    -496.69010201 Ry
     estimated scf accuracy    <       0.00000947 Ry

     iteration # 17     ecut=    50.00 Ry     beta= 0.50
     Davidson diagonalization with overlap
     ethr =  6.96E-09,  avg # of iterations =  3.7

     negative rho (up, down):  2.938E-05 0.000E+00

     total cpu time spent up to now is      193.6 secs

     total energy              =    -496.69010001 Ry
     estimated scf accuracy    <       0.00001930 Ry

     iteration # 18     ecut=    50.00 Ry     beta= 0.50
     Davidson diagonalization with overlap
     ethr =  6.96E-09,  avg # of iterations =  3.5

     negative rho (up, down):  2.801E-05 0.000E+00

     total cpu time spent up to now is      195.5 secs

     total energy              =    -496.69009743 Ry
     estimated scf accuracy    <       0.00001039 Ry

     iteration # 19     ecut=    50.00 Ry     beta= 0.50
     Davidson diagonalization with overlap
     ethr =  6.96E-09,  avg # of iterations =  5.8

     negative rho (up, down):  3.409E-05 0.000E+00

     total cpu time spent up to now is      197.8 secs

     total energy              =    -496.69009922 Ry
     estimated scf accuracy    <       0.00000013 Ry

     iteration # 20     ecut=    50.00 Ry     beta= 0.50
     Davidson diagonalization with overlap
     ethr =  5.08E-10,  avg # of iterations =  5.5

     negative rho (up, down):  3.316E-05 0.000E+00

     total cpu time spent up to now is      200.2 secs

     total energy              =    -496.69009919 Ry
     estimated scf accuracy    <       0.00000108 Ry

     iteration # 21     ecut=    50.00 Ry     beta= 0.50
     Davidson diagonalization with overlap
     ethr =  5.08E-10,  avg # of iterations =  3.6

     negative rho (up, down):  3.318E-05 0.000E+00

     total cpu time spent up to now is      202.0 secs

     total energy              =    -496.69009916 Ry
     estimated scf accuracy    <       0.00000048 Ry

     iteration # 22     ecut=    50.00 Ry     beta= 0.50
     Davidson diagonalization with overlap
     ethr =  5.08E-10,  avg # of iterations =  2.8

     negative rho (up, down):  4.095E-05 0.000E+00

     total cpu time spent up to now is      203.7 secs

     total energy              =    -496.69009920 Ry
     estimated scf accuracy    <       0.00000021 Ry

     iteration # 23     ecut=    50.00 Ry     beta= 0.50
     Davidson diagonalization with overlap
     ethr =  5.08E-10,  avg # of iterations =  1.3

     negative rho (up, down):  4.315E-05 0.000E+00

     total cpu time spent up to now is      205.0 secs

     total energy              =    -496.69009914 Ry
     estimated scf accuracy    <       0.00000032 Ry

     iteration # 24     ecut=    50.00 Ry     beta= 0.50
     Davidson diagonalization with overlap
     ethr =  5.08E-10,  avg # of iterations =  1.9

     negative rho (up, down):  4.338E-05 0.000E+00

     total cpu time spent up to now is      206.5 secs

     total energy              =    -496.69009913 Ry
     estimated scf accuracy    <       0.00000017 Ry

     iteration # 25     ecut=    50.00 Ry     beta= 0.50
     Davidson diagonalization with overlap
     ethr =  5.08E-10,  avg # of iterations =  2.7

     negative rho (up, down):  4.338E-05 0.000E+00

     total cpu time spent up to now is      208.1 secs

     total energy              =    -496.69009914 Ry
     estimated scf accuracy    <       0.00000005 Ry

     iteration # 26     ecut=    50.00 Ry     beta= 0.50
     Davidson diagonalization with overlap
     ethr =  1.87E-10,  avg # of iterations =  2.4

     negative rho (up, down):  4.380E-05 0.000E+00

     total cpu time spent up to now is      209.7 secs

     total energy              =    -496.69009913 Ry
     estimated scf accuracy    <       0.00000003 Ry

     iteration # 27     ecut=    50.00 Ry     beta= 0.50
     Davidson diagonalization with overlap
     ethr =  1.13E-10,  avg # of iterations =  4.2

     negative rho (up, down):  4.375E-05 0.000E+00

     total cpu time spent up to now is      211.7 secs

     total energy              =    -496.69009914 Ry
     estimated scf accuracy    <          4.8E-09 Ry

     iteration # 28     ecut=    50.00 Ry     beta= 0.50
     Davidson diagonalization with overlap
     ethr =  1.83E-11,  avg # of iterations =  3.0

     negative rho (up, down):  4.374E-05 0.000E+00

     total cpu time spent up to now is      213.4 secs

     total energy              =    -496.69009914 Ry
     estimated scf accuracy    <          8.2E-09 Ry

     iteration # 29     ecut=    50.00 Ry     beta= 0.50
     Davidson diagonalization with overlap
     ethr =  1.83E-11,  avg # of iterations =  1.0

     negative rho (up, down):  4.376E-05 0.000E+00

     total cpu time spent up to now is      214.7 secs

     total energy              =    -496.69009914 Ry
     estimated scf accuracy    <          9.8E-09 Ry

     iteration # 30     ecut=    50.00 Ry     beta= 0.50
     Davidson diagonalization with overlap
     ethr =  1.83E-11,  avg # of iterations =  1.0

     negative rho (up, down):  4.384E-05 0.000E+00

     total cpu time spent up to now is      216.1 secs

     total energy              =    -496.69009914 Ry
     estimated scf accuracy    <       0.00000001 Ry

     iteration # 31     ecut=    50.00 Ry     beta= 0.50
     Davidson diagonalization with overlap
     ethr =  1.83E-11,  avg # of iterations =  1.0

     negative rho (up, down):  4.408E-05 0.000E+00

     total cpu time spent up to now is      217.5 secs

     total energy              =    -496.69009914 Ry
     estimated scf accuracy    <          1.0E-08 Ry

     iteration # 32     ecut=    50.00 Ry     beta= 0.50
     Davidson diagonalization with overlap
     ethr =  1.83E-11,  avg # of iterations =  2.3

     negative rho (up, down):  4.399E-05 0.000E+00

     total cpu time spent up to now is      219.1 secs

     total energy              =    -496.69009914 Ry
     estimated scf accuracy    <          2.3E-09 Ry

     iteration # 33     ecut=    50.00 Ry     beta= 0.50
     Davidson diagonalization with overlap
     ethr =  9.01E-12,  avg # of iterations =  1.2

     negative rho (up, down):  4.401E-05 0.000E+00

     total cpu time spent up to now is      220.5 secs

     total energy              =    -496.69009914 Ry
     estimated scf accuracy    <          1.7E-09 Ry

     iteration # 34     ecut=    50.00 Ry     beta= 0.50
     Davidson diagonalization with overlap
     ethr =  6.48E-12,  avg # of iterations =  3.4

     negative rho (up, down):  4.399E-05 0.000E+00

     total cpu time spent up to now is      222.0 secs

     End of self-consistent calculation

          k = 0.0000 0.0000 0.0000 (  5599 PWs)   bands (ev):

   -60.5447 -34.6746 -34.4620 -34.4615 -13.7147 -12.4502  -5.2481  -2.1957
    -2.1859  -1.4481  -1.0907  -1.0794   0.2939

          k = 0.0000 0.0959 0.0000 (  5565 PWs)   bands (ev):

   -60.5421 -34.6695 -34.4871 -34.4678 -13.6121 -12.4064  -5.1292  -2.4176
    -2.0876  -1.8986  -1.2448  -0.8030   0.2463

          k = 0.0000 0.1917 0.0000 (  5541 PWs)   bands (ev):

   -60.5352 -34.6557 -34.5567 -34.4838 -13.3202 -12.2818  -4.8282  -2.9549
    -2.5361  -1.7868  -1.6345  -0.7362   0.0256

          k = 0.0000 0.2876 0.0000 (  5536 PWs)   bands (ev):

   -60.5257 -34.6506 -34.6368 -34.5055 -12.8875 -12.0985  -4.6009  -3.4305
    -3.1954  -2.0713  -1.3669  -0.9970  -0.3876

          k = 0.0000 0.3834 0.0000 (  5536 PWs)   bands (ev):

   -60.5161 -34.7432 -34.6178 -34.5270 -12.4011 -11.8964  -4.8442  -3.8119
    -3.5383  -2.4390  -1.3045  -0.9502  -0.6239

          k = 0.0000 0.4793 0.0000 (  5526 PWs)   bands (ev):

   -60.5092 -34.8102 -34.6038 -34.5428 -11.9956 -11.7336  -5.2338  -4.2659
    -3.6291  -2.6778  -1.4984  -0.6646  -0.4532

          k = 0.0000-0.5752 0.0000 (  5550 PWs)   bands (ev):

   -60.5066 -34.8345 -34.5987 -34.5485 -11.8327 -11.6702  -5.4009  -4.4344
    -3.7002  -2.7601  -1.5605  -0.5684  -0.2897

          k = 0.0830 0.1438 0.0000 (  5545 PWs)   bands (ev):

   -60.5374 -34.6601 -34.5336 -34.4798 -13.4149 -12.3220  -4.9160  -2.7967
    -2.3201  -1.8893  -1.6322  -0.6250   0.1118

          k = 0.0830 0.2397 0.0000 (  5540 PWs)   bands (ev):

   -60.5292 -34.6437 -34.6119 -34.5020 -13.0516 -12.1670  -4.6202  -3.2864
    -2.8607  -2.1862  -1.5812  -0.6679  -0.2161

          k = 0.0830 0.3355 0.0000 (  5531 PWs)   bands (ev):

   -60.5196 -34.7011 -34.6247 -34.5277 -12.5885 -11.9712  -4.6329  -3.5137
    -3.4904  -2.5561  -1.3473  -0.9715  -0.4915

          k = 0.0830 0.4314 0.0000 (  5534 PWs)   bands (ev):

   -60.5114 -34.7773 -34.6083 -34.5499 -12.1344 -11.7832  -4.9870  -4.1109
    -3.5244  -2.7251  -1.3085  -1.2418  -0.3713

          k = 0.0830 0.5272 0.0000 (  5546 PWs)   bands (ev):

   -60.5066 -34.8210 -34.5987 -34.5626 -11.8404 -11.6649  -5.2605  -4.4602
    -3.6424  -2.7802  -1.5165  -1.1192  -0.1320

          k = 0.1659 0.2876 0.0000 (  5543 PWs)   bands (ev):

   -60.5209 -34.6796 -34.6274 -34.5339 -12.6560 -11.9970  -4.5290  -3.4521
    -3.2748  -2.8114  -1.5668  -0.7123  -0.4301

          k = 0.1659 0.3834 0.0000 (  5514 PWs)   bands (ev):

   -60.5127 -34.7431 -34.6109 -34.5695 -12.2158 -11.8081  -4.7217  -3.9729
    -3.3656  -2.9240  -1.8539  -1.0206  -0.3667

          k = 0.1659 0.4793 0.0000 (  5535 PWs)   bands (ev):

   -60.5066 -34.7880 -34.5988 -34.5966 -11.8558 -11.6543  -4.9308  -4.5070
    -3.4647  -2.8423  -1.9862  -1.3934  -0.1145

          k = 0.1659 0.5752 0.0000 (  5552 PWs)   bands (ev):

   -60.5044 -34.8042 -34.6068 -34.5944 -11.7137 -11.5941  -5.0089  -4.7012
    -3.5807  -2.7698  -1.9858  -1.5726   0.0610

          k = 0.2489 0.4314 0.0000 (  5531 PWs)   bands (ev):

   -60.5067 -34.7660 -34.6190 -34.5989 -11.8640 -11.6489  -4.7307  -4.5283
    -3.2490  -2.8820  -2.5345  -1.3151  -0.1349

          k = 0.2489 0.5272 0.0000 (  5540 PWs)   bands (ev):

   -60.5032 -34.7706 -34.6563 -34.5919 -11.6454 -11.5476  -4.8734  -4.6122
    -3.4488  -2.8462  -2.6886  -1.6512   0.1734

          k = 0.3319 0.5752 0.0000 (  5523 PWs)   bands (ev):

   -60.5019 -34.7424 -34.6998 -34.5894 -11.5679 -11.5052  -5.0187  -4.2208
    -3.6924  -3.1968  -2.5337  -1.8400   0.3613

          k =-0.0830 0.0479 0.0000 (  5565 PWs)   bands (ev):

   -60.5421 -34.6695 -34.4875 -34.4674 -13.6123 -12.4064  -5.1295  -2.4243
    -2.0804  -1.8947  -1.2518  -0.8001   0.2466

          k =-0.1659 0.0959 0.0000 (  5541 PWs)   bands (ev):

   -60.5352 -34.6558 -34.5569 -34.4833 -13.3209 -12.2817  -4.8291  -2.9602
    -2.5321  -1.7804  -1.6386  -0.7370   0.0271

          k =-0.2489 0.1438 0.0000 (  5536 PWs)   bands (ev):

   -60.5257 -34.6506 -34.6369 -34.5049 -12.8890 -12.0983  -4.6021  -3.4353
    -3.1933  -2.0728  -1.3614  -0.9982  -0.3843

          k =-0.3319 0.1917 0.0000 (  5536 PWs)   bands (ev):

   -60.5162 -34.7431 -34.6179 -34.5263 -12.4037 -11.8961  -4.8446  -3.8122
    -3.5436  -2.4388  -1.3039  -0.9457  -0.6198

          k =-0.4148 0.2397 0.0000 (  5526 PWs)   bands (ev):

   -60.5093 -34.8098 -34.6040 -34.5420 -11.9992 -11.7331  -5.2334  -4.2678
    -3.6336  -2.6767  -1.4961  -0.6606  -0.4503

          k = 0.4978-0.2876 0.0000 (  5550 PWs)   bands (ev):

   -60.5067 -34.8342 -34.5989 -34.5478 -11.8368 -11.6696  -5.4002  -4.4368
    -3.7040  -2.7587  -1.5576  -0.5646  -0.2878

          k = 0.1659 0.0000 0.0000 (  5545 PWs)   bands (ev):

   -60.5374 -34.6601 -34.5337 -34.4795 -13.4155 -12.3220  -4.9166  -2.8018
    -2.3144  -1.8834  -1.6394  -0.6240   0.1133

          k =-0.1659 0.1917 0.0000 (  5540 PWs)   bands (ev):

   -60.5292 -34.6438 -34.6120 -34.5017 -13.0522 -12.1670  -4.6208  -3.2888
    -2.8588  -2.1880  -1.5779  -0.6684  -0.2154

          k = 0.2489 0.0479 0.0000 (  5540 PWs)   bands (ev):

   -60.5292 -34.6438 -34.6118 -34.5016 -13.0530 -12.1669  -4.6214  -3.2911
    -2.8562  -2.1904  -1.5764  -0.6696  -0.2118

          k =-0.2489 0.2397 0.0000 (  5531 PWs)   bands (ev):

   -60.5197 -34.7011 -34.6248 -34.5272 -12.5900 -11.9710  -4.6334  -3.5126
    -3.4948  -2.5579  -1.3413  -0.9704  -0.4910

          k = 0.3319 0.0959 0.0000 (  5531 PWs)   bands (ev):

   -60.5197 -34.7008 -34.6249 -34.5272 -12.5909 -11.9709  -4.6333  -3.5138
    -3.4953  -2.5550  -1.3454  -0.9733  -0.4845

          k =-0.3319 0.2876 0.0000 (  5534 PWs)   bands (ev):

   -60.5115 -34.7772 -34.6084 -34.5492 -12.1370 -11.7829  -4.9870  -4.1113
    -3.5294  -2.7264  -1.3052  -1.2348  -0.3714

          k = 0.4148 0.1438 0.0000 (  5534 PWs)   bands (ev):

   -60.5115 -34.7769 -34.6085 -34.5493 -12.1377 -11.7827  -4.9865  -4.1130
    -3.5290  -2.7223  -1.3085  -1.2405  -0.3654

          k =-0.4148 0.3355 0.0000 (  5546 PWs)   bands (ev):

   -60.5067 -34.8207 -34.5989 -34.5619 -11.8439 -11.6644  -5.2599  -4.4619
    -3.6464  -2.7803  -1.5127  -1.1144  -0.1316

          k = 0.4978 0.1917 0.0000 (  5546 PWs)   bands (ev):

   -60.5067 -34.8206 -34.5989 -34.5620 -11.8442 -11.6644  -5.2596  -4.4626
    -3.6462  -2.7784  -1.5142  -1.1168  -0.1291

          k = 0.3319 0.0000 0.0000 (  5543 PWs)   bands (ev):

   -60.5210 -34.6792 -34.6275 -34.5338 -12.6577 -11.9968  -4.5291  -3.4551
    -3.2759  -2.8091  -1.5674  -0.7149  -0.4232

          k =-0.2489 0.3355 0.0000 (  5514 PWs)   bands (ev):

   -60.5127 -34.7431 -34.6109 -34.5692 -12.2167 -11.8080  -4.7217  -3.9727
    -3.3689  -2.9250  -1.8499  -1.0191  -0.3669

          k = 0.4148 0.0479 0.0000 (  5514 PWs)   bands (ev):

   -60.5128 -34.7425 -34.6110 -34.5693 -12.2184 -11.8076  -4.7207  -3.9758
    -3.3692  -2.9199  -1.8542  -1.0224  -0.3612

          k =-0.3319 0.3834 0.0000 (  5535 PWs)   bands (ev):

   -60.5067 -34.7879 -34.5989 -34.5962 -11.8578 -11.6540  -4.9304  -4.5075
    -3.4688  -2.8437  -1.9814  -1.3900  -0.1149

          k = 0.4978 0.0959 0.0000 (  5535 PWs)   bands (ev):

   -60.5067 -34.7875 -34.5990 -34.5963 -11.8589 -11.6538  -4.9294  -4.5094
    -3.4678  -2.8397  -1.9856  -1.3928  -0.1115

          k =-0.4148 0.4314 0.0000 (  5552 PWs)   bands (ev):

   -60.5045 -34.8038 -34.6063 -34.5945 -11.7166 -11.5936  -5.0079  -4.7028
    -3.5838  -2.7700  -1.9833  -1.5694   0.0616

          k = 0.4978 0.0000 0.0000 (  5531 PWs)   bands (ev):

   -60.5067 -34.7653 -34.6191 -34.5990 -11.8661 -11.6485  -4.7291  -4.5307
    -3.2483  -2.8782  -2.5385  -1.3168  -0.1317

          k =-0.3319 0.4793 0.0000 (  5540 PWs)   bands (ev):

   -60.5032 -34.7705 -34.6561 -34.5920 -11.6465 -11.5474  -4.8739  -4.6115
    -3.4513  -2.8440  -2.6893  -1.6493   0.1733

          k = 0.5808 0.0479 0.0000 (  5540 PWs)   bands (ev):

   -60.5032 -34.7701 -34.6563 -34.5920 -11.6473 -11.5472  -4.8748  -4.6106
    -3.4495  -2.8472  -2.6875  -1.6503   0.1744

     highest occupied level (ev):     0.3613

!    total energy              =    -496.69009914 Ry

     total all-electron energy =     -9695.021485 Ry
     estimated scf accuracy    <          2.9E-10 Ry

     The total energy is the sum of the following terms:
     one-electron contribution =    -774.84164943 Ry
     hartree contribution      =     391.37200767 Ry
     xc contribution           =     -42.55999797 Ry
     ewald contribution        =     236.28986479 Ry
     one-center paw contrib.   =    -306.95032420 Ry

     convergence has been achieved in  34 iterations

     negative rho (up, down):  4.399E-05 0.000E+00

     Forces acting on atoms (cartesian axes, Ry/au):

     atom    1 type  1   force =     0.00000000   -0.00133111    0.00000000
     atom    2 type  2   force =     0.00000000    0.00066556   -0.00204926
     atom    3 type  2   force =     0.00000000    0.00066556    0.00204926

     Total force =     0.003325     Total SCF correction =     0.000038


     Computing stress (Cartesian axis) and pressure


     negative rho (up, down):  4.399E-05 0.000E+00
          total   stress  (Ry/bohr**3)                   (kbar)     P=        1.31
   0.00001975   0.00000000   0.00000000            2.91        0.00        0.00
   0.00000000   0.00002403   0.00000000            0.00        3.54        0.00
   0.00000000   0.00000000  -0.00001710            0.00        0.00       -2.51

     Energy error            =      1.6E-04
     Gradient error          =      2.0E-03
     Cell gradient error     =      2.4E-05


     number of scf cycles    =   3
     number of bfgs steps    =   2

     enthalpy old            =    -496.6899396189 Ry
     enthalpy new            =    -496.6900991423 Ry

     CASE: enthalpy_new < enthalpy_old

     new trust radius        =       0.0084192727 bohr
     new conv_thr            =       0.0000000002 Ry

     new unit-cell volume =    938.38006 a.u.^3 (   139.05358 Ang^3 )
     density =      1.91151 g/cm^3

CELL_PARAMETERS (alat=  5.98300000)
   1.005709601   0.000000000   0.000000000
  -0.502854801   0.870500911   0.000000000
   0.000000000   0.000000000   5.004721714

ATOMIC_POSITIONS (alat)
Mo            0.0000000000        0.0036130171        0.0000000000
S             0.0000000000        0.5831258998        0.4967261674
S             0.0000000000        0.5831258998       -0.4967261674



     Writing output data file ./MoS2.save/
     NEW-OLD atomic charge density approx. for the potential

     Check: negative core charge=   -0.000001

     negative rho (up, down):  4.209E-05 0.000E+00
     extrapolated charge   26.06045, renormalised to   26.00000

     total cpu time spent up to now is      226.5 secs

     Self-consistent Calculation

     iteration #  1     ecut=    50.00 Ry     beta= 0.50
     Davidson diagonalization with overlap
     ethr =  1.00E-06,  avg # of iterations =  9.7

     negative rho (up, down):  1.626E-03 0.000E+00

     total cpu time spent up to now is      230.2 secs

     total energy              =    -496.68083676 Ry
     estimated scf accuracy    <       0.02769947 Ry

     iteration #  2     ecut=    50.00 Ry     beta= 0.50
     Davidson diagonalization with overlap
     ethr =  1.07E-04,  avg # of iterations =  4.5

     negative rho (up, down):  1.408E-03 0.000E+00

     total cpu time spent up to now is      232.2 secs

     total energy              =    -496.69040445 Ry
     estimated scf accuracy    <       0.00267496 Ry

     iteration #  3     ecut=    50.00 Ry     beta= 0.50
     Davidson diagonalization with overlap
     ethr =  1.03E-05,  avg # of iterations =  3.3

     negative rho (up, down):  6.736E-04 0.000E+00

     total cpu time spent up to now is      234.0 secs

     total energy              =    -496.68973334 Ry
     estimated scf accuracy    <       0.00386765 Ry

     iteration #  4     ecut=    50.00 Ry     beta= 0.50
     Davidson diagonalization with overlap
     ethr =  1.03E-05,  avg # of iterations =  3.2

     negative rho (up, down):  5.544E-04 0.000E+00

     total cpu time spent up to now is      235.6 secs

     total energy              =    -496.69010408 Ry
     estimated scf accuracy    <       0.00055083 Ry

     iteration #  5     ecut=    50.00 Ry     beta= 0.50
     Davidson diagonalization with overlap
     ethr =  2.12E-06,  avg # of iterations =  2.9

     negative rho (up, down):  4.954E-04 0.000E+00

     total cpu time spent up to now is      237.2 secs

     total energy              =    -496.69017015 Ry
     estimated scf accuracy    <       0.00028581 Ry

     iteration #  6     ecut=    50.00 Ry     beta= 0.50
     Davidson diagonalization with overlap
     ethr =  1.10E-06,  avg # of iterations =  1.0

     negative rho (up, down):  2.429E-04 0.000E+00

     total cpu time spent up to now is      238.6 secs

     total energy              =    -496.69017097 Ry
     estimated scf accuracy    <       0.00029960 Ry

     iteration #  7     ecut=    50.00 Ry     beta= 0.50
     Davidson diagonalization with overlap
     ethr =  1.10E-06,  avg # of iterations =  1.0

     negative rho (up, down):  1.219E-04 0.000E+00

     total cpu time spent up to now is      239.9 secs

     total energy              =    -496.69014646 Ry
     estimated scf accuracy    <       0.00026623 Ry

     iteration #  8     ecut=    50.00 Ry     beta= 0.50
     Davidson diagonalization with overlap
     ethr =  1.02E-06,  avg # of iterations =  1.1

     negative rho (up, down):  9.510E-05 0.000E+00

     total cpu time spent up to now is      241.4 secs

     total energy              =    -496.69014226 Ry
     estimated scf accuracy    <       0.00016032 Ry

     iteration #  9     ecut=    50.00 Ry     beta= 0.50
     Davidson diagonalization with overlap
     ethr =  6.17E-07,  avg # of iterations =  1.6

     negative rho (up, down):  7.112E-05 0.000E+00

     total cpu time spent up to now is      242.8 secs

     total energy              =    -496.69014269 Ry
     estimated scf accuracy    <       0.00009885 Ry

     iteration # 10     ecut=    50.00 Ry     beta= 0.50
     Davidson diagonalization with overlap
     ethr =  3.80E-07,  avg # of iterations =  2.1

     negative rho (up, down):  2.711E-06 0.000E+00

     total cpu time spent up to now is      244.3 secs

     total energy              =    -496.69013044 Ry
     estimated scf accuracy    <       0.00005575 Ry

     iteration # 11     ecut=    50.00 Ry     beta= 0.50
     Davidson diagonalization with overlap
     ethr =  2.14E-07,  avg # of iterations =  4.5

     negative rho (up, down):  2.338E-06 0.000E+00

     total cpu time spent up to now is      246.3 secs

     total energy              =    -496.69015286 Ry
     estimated scf accuracy    <       0.00001865 Ry

     iteration # 12     ecut=    50.00 Ry     beta= 0.50
     Davidson diagonalization with overlap
     ethr =  7.17E-08,  avg # of iterations =  1.5

     negative rho (up, down):  5.525E-06 0.000E+00

     total cpu time spent up to now is      247.7 secs

     total energy              =    -496.69014806 Ry
     estimated scf accuracy    <       0.00002074 Ry

     iteration # 13     ecut=    50.00 Ry     beta= 0.50
     Davidson diagonalization with overlap
     ethr =  7.17E-08,  avg # of iterations =  2.1

     negative rho (up, down):  1.779E-05 0.000E+00

     total cpu time spent up to now is      249.3 secs

     total energy              =    -496.69014688 Ry
     estimated scf accuracy    <       0.00000626 Ry

     iteration # 14     ecut=    50.00 Ry     beta= 0.50
     Davidson diagonalization with overlap
     ethr =  2.41E-08,  avg # of iterations =  5.1

     negative rho (up, down):  1.784E-05 0.000E+00

     total cpu time spent up to now is      251.4 secs

     total energy              =    -496.69015067 Ry
     estimated scf accuracy    <       0.00000716 Ry

     iteration # 15     ecut=    50.00 Ry     beta= 0.50
     Davidson diagonalization with overlap
     ethr =  2.41E-08,  avg # of iterations =  1.0

     negative rho (up, down):  1.886E-05 0.000E+00

     total cpu time spent up to now is      252.8 secs

     total energy              =    -496.69014898 Ry
     estimated scf accuracy    <       0.00000651 Ry

     iteration # 16     ecut=    50.00 Ry     beta= 0.50
     Davidson diagonalization with overlap
     ethr =  2.41E-08,  avg # of iterations =  2.3

     negative rho (up, down):  3.488E-05 0.000E+00

     total cpu time spent up to now is      254.3 secs

     total energy              =    -496.69014907 Ry
     estimated scf accuracy    <       0.00000117 Ry

     iteration # 17     ecut=    50.00 Ry     beta= 0.50
     Davidson diagonalization with overlap
     ethr =  4.49E-09,  avg # of iterations =  4.5

     negative rho (up, down):  3.420E-05 0.000E+00

     total cpu time spent up to now is      256.4 secs

     total energy              =    -496.69014953 Ry
     estimated scf accuracy    <       0.00000040 Ry

     iteration # 18     ecut=    50.00 Ry     beta= 0.50
     Davidson diagonalization with overlap
     ethr =  1.52E-09,  avg # of iterations =  1.7

     negative rho (up, down):  3.948E-05 0.000E+00

     total cpu time spent up to now is      257.8 secs

     total energy              =    -496.69014941 Ry
     estimated scf accuracy    <       0.00000017 Ry

     iteration # 19     ecut=    50.00 Ry     beta= 0.50
     Davidson diagonalization with overlap
     ethr =  6.47E-10,  avg # of iterations =  5.8

     negative rho (up, down):  4.053E-05 0.000E+00

     total cpu time spent up to now is      260.2 secs

     total energy              =    -496.69014955 Ry
     estimated scf accuracy    <       0.00000095 Ry

     iteration # 20     ecut=    50.00 Ry     beta= 0.50
     Davidson diagonalization with overlap
     ethr =  6.47E-10,  avg # of iterations =  2.6

     negative rho (up, down):  4.145E-05 0.000E+00

     total cpu time spent up to now is      261.7 secs

     total energy              =    -496.69014946 Ry
     estimated scf accuracy    <       0.00000054 Ry

     iteration # 21     ecut=    50.00 Ry     beta= 0.50
     Davidson diagonalization with overlap
     ethr =  6.47E-10,  avg # of iterations =  4.3

     negative rho (up, down):  4.119E-05 0.000E+00

     total cpu time spent up to now is      263.7 secs

     total energy              =    -496.69014950 Ry
     estimated scf accuracy    <       0.00000003 Ry

     iteration # 22     ecut=    50.00 Ry     beta= 0.50
     Davidson diagonalization with overlap
     ethr =  1.23E-10,  avg # of iterations =  4.9

     negative rho (up, down):  4.137E-05 0.000E+00

     total cpu time spent up to now is      265.8 secs

     total energy              =    -496.69014952 Ry
     estimated scf accuracy    <       0.00000001 Ry

     iteration # 23     ecut=    50.00 Ry     beta= 0.50
     Davidson diagonalization with overlap
     ethr =  5.42E-11,  avg # of iterations =  1.3

     negative rho (up, down):  4.124E-05 0.000E+00

     total cpu time spent up to now is      267.1 secs

     total energy              =    -496.69014952 Ry
     estimated scf accuracy    <          8.3E-09 Ry

     iteration # 24     ecut=    50.00 Ry     beta= 0.50
     Davidson diagonalization with overlap
     ethr =  3.17E-11,  avg # of iterations =  2.7

     negative rho (up, down):  4.139E-05 0.000E+00

     total cpu time spent up to now is      268.7 secs

     total energy              =    -496.69014952 Ry
     estimated scf accuracy    <          1.2E-09 Ry

     iteration # 25     ecut=    50.00 Ry     beta= 0.50
     Davidson diagonalization with overlap
     ethr =  4.69E-12,  avg # of iterations =  5.0

     negative rho (up, down):  4.167E-05 0.000E+00

[...]
     Davidson diagonalization with overlap
     ethr =  2.23E-05,  avg # of iterations =  5.7

     total cpu time spent up to now is     2845.4 secs

     total energy              =    -496.68592625 Ry
     estimated scf accuracy    <       0.01953730 Ry

     iteration #  8     ecut=    50.00 Ry     beta= 0.50
     Davidson diagonalization with overlap
     ethr =  2.23E-05,  avg # of iterations =  5.3

     total cpu time spent up to now is     2847.3 secs

     total energy              =    -496.69284522 Ry
     estimated scf accuracy    <       0.00334818 Ry

     iteration #  9     ecut=    50.00 Ry     beta= 0.50
     Davidson diagonalization with overlap
     ethr =  1.29E-05,  avg # of iterations =  5.4

     total cpu time spent up to now is     2849.2 secs

     total energy              =    -496.69240111 Ry
     estimated scf accuracy    <       0.03447993 Ry

     iteration # 10     ecut=    50.00 Ry     beta= 0.50
     Davidson diagonalization with overlap
     ethr =  1.29E-05,  avg # of iterations =  2.6

     total cpu time spent up to now is     2850.5 secs

     total energy              =    -496.68532345 Ry
     estimated scf accuracy    <       0.02381541 Ry

     iteration # 11     ecut=    50.00 Ry     beta= 0.50
     Davidson diagonalization with overlap
     ethr =  1.29E-05,  avg # of iterations =  5.9

     total cpu time spent up to now is     2852.4 secs

     total energy              =    -496.69051463 Ry
     estimated scf accuracy    <       0.00171945 Ry

     iteration # 12     ecut=    50.00 Ry     beta= 0.50
     Davidson diagonalization with overlap
     ethr =  6.61E-06,  avg # of iterations =  1.0

     total cpu time spent up to now is     2853.5 secs

     total energy              =    -496.69012735 Ry
     estimated scf accuracy    <       0.00174966 Ry

     iteration # 13     ecut=    50.00 Ry     beta= 0.50
     Davidson diagonalization with overlap
     ethr =  6.61E-06,  avg # of iterations =  2.2

     total cpu time spent up to now is     2854.7 secs

     total energy              =    -496.69016387 Ry
     estimated scf accuracy    <       0.00040461 Ry

     iteration # 14     ecut=    50.00 Ry     beta= 0.50
     Davidson diagonalization with overlap
     ethr =  1.56E-06,  avg # of iterations =  3.8

     negative rho (up, down):  2.223E-08 0.000E+00

     total cpu time spent up to now is     2856.2 secs

     total energy              =    -496.69023388 Ry
     estimated scf accuracy    <       0.00001352 Ry

     iteration # 15     ecut=    50.00 Ry     beta= 0.50
     Davidson diagonalization with overlap
     ethr =  5.20E-08,  avg # of iterations =  5.3

     negative rho (up, down):  1.727E-08 0.000E+00

     total cpu time spent up to now is     2857.9 secs

     total energy              =    -496.69024493 Ry
     estimated scf accuracy    <       0.00000089 Ry

     iteration # 16     ecut=    50.00 Ry     beta= 0.50
     Davidson diagonalization with overlap
     ethr =  3.43E-09,  avg # of iterations =  5.5

     negative rho (up, down):  4.905E-08 0.000E+00

     total cpu time spent up to now is     2859.7 secs

     total energy              =    -496.69024616 Ry
     estimated scf accuracy    <       0.00000124 Ry

     iteration # 17     ecut=    50.00 Ry     beta= 0.50
     Davidson diagonalization with overlap
     ethr =  3.43E-09,  avg # of iterations =  4.1

     negative rho (up, down):  6.848E-08 0.000E+00

     total cpu time spent up to now is     2861.3 secs

     total energy              =    -496.69024503 Ry
     estimated scf accuracy    <       0.00000687 Ry

     iteration # 18     ecut=    50.00 Ry     beta= 0.50
     Davidson diagonalization with overlap
     ethr =  3.43E-09,  avg # of iterations =  4.5

     negative rho (up, down):  6.657E-08 0.000E+00

     total cpu time spent up to now is     2862.9 secs

     total energy              =    -496.69024529 Ry
     estimated scf accuracy    <       0.00000097 Ry

     iteration # 19     ecut=    50.00 Ry     beta= 0.50
     Davidson diagonalization with overlap
     ethr =  3.43E-09,  avg # of iterations =  2.6

     negative rho (up, down):  6.674E-08 0.000E+00

     total cpu time spent up to now is     2864.2 secs

     total energy              =    -496.69024536 Ry
     estimated scf accuracy    <       0.00000024 Ry

     iteration # 20     ecut=    50.00 Ry     beta= 0.50
     Davidson diagonalization with overlap
     ethr =  9.09E-10,  avg # of iterations =  4.0

     negative rho (up, down):  6.277E-08 0.000E+00

     total cpu time spent up to now is     2865.6 secs

     total energy              =    -496.69024540 Ry
     estimated scf accuracy    <       0.00000003 Ry

     iteration # 21     ecut=    50.00 Ry     beta= 0.50
     Davidson diagonalization with overlap
     ethr =  1.28E-10,  avg # of iterations =  4.7

     negative rho (up, down):  6.526E-08 0.000E+00

     total cpu time spent up to now is     2867.3 secs

     total energy              =    -496.69024541 Ry
     estimated scf accuracy    <       0.00000004 Ry

     iteration # 22     ecut=    50.00 Ry     beta= 0.50
     Davidson diagonalization with overlap
     ethr =  1.28E-10,  avg # of iterations =  1.0

     negative rho (up, down):  8.329E-08 0.000E+00

     total cpu time spent up to now is     2868.3 secs

     total energy              =    -496.69024541 Ry
     estimated scf accuracy    <       0.00000003 Ry

     iteration # 23     ecut=    50.00 Ry     beta= 0.50
     Davidson diagonalization with overlap
     ethr =  1.26E-10,  avg # of iterations =  3.9

     negative rho (up, down):  7.466E-08 0.000E+00

     total cpu time spent up to now is     2869.8 secs

     total energy              =    -496.69024541 Ry
     estimated scf accuracy    <       0.00000008 Ry

     iteration # 24     ecut=    50.00 Ry     beta= 0.50
     Davidson diagonalization with overlap
     ethr =  1.26E-10,  avg # of iterations =  1.9

     negative rho (up, down):  6.954E-08 0.000E+00

     total cpu time spent up to now is     2871.0 secs

     total energy              =    -496.69024540 Ry
     estimated scf accuracy    <       0.00000004 Ry

     iteration # 25     ecut=    50.00 Ry     beta= 0.50
     Davidson diagonalization with overlap
     ethr =  1.26E-10,  avg # of iterations =  1.0

     negative rho (up, down):  6.977E-08 0.000E+00

     total cpu time spent up to now is     2872.0 secs

     total energy              =    -496.69024542 Ry
     estimated scf accuracy    <       0.00000003 Ry

     iteration # 26     ecut=    50.00 Ry     beta= 0.50
     Davidson diagonalization with overlap
     ethr =  1.07E-10,  avg # of iterations =  4.5

     negative rho (up, down):  7.548E-08 0.000E+00

     total cpu time spent up to now is     2873.6 secs

     total energy              =    -496.69024537 Ry
     estimated scf accuracy    <       0.00000017 Ry

     iteration # 27     ecut=    50.00 Ry     beta= 0.50
     Davidson diagonalization with overlap
     ethr =  1.07E-10,  avg # of iterations =  5.7

     negative rho (up, down):  7.673E-08 0.000E+00

     total cpu time spent up to now is     2875.6 secs

     total energy              =    -496.69024540 Ry
     estimated scf accuracy    <          7.5E-09 Ry

     iteration # 28     ecut=    50.00 Ry     beta= 0.50
     Davidson diagonalization with overlap
     ethr =  2.90E-11,  avg # of iterations =  1.4

     negative rho (up, down):  7.678E-08 0.000E+00

     total cpu time spent up to now is     2876.6 secs

     total energy              =    -496.69024540 Ry
     estimated scf accuracy    <          6.6E-09 Ry

     iteration # 29     ecut=    50.00 Ry     beta= 0.50
     Davidson diagonalization with overlap
     ethr =  2.54E-11,  avg # of iterations =  3.4

     negative rho (up, down):  7.730E-08 0.000E+00

     total cpu time spent up to now is     2878.0 secs

     End of self-consistent calculation

          k = 0.0000 0.0000 0.0000 (  4009 PWs)   bands (ev):

   -58.0963 -32.2190 -32.0213 -32.0211 -11.2324  -9.9529  -2.7653   0.2279
     0.2291   1.0634   1.3322   1.3337   2.8018

          k = 0.0000 0.0955 0.0000 (  4007 PWs)   bands (ev):

   -58.0939 -32.2142 -32.0458 -32.0270 -11.1314  -9.9105  -2.6488   0.0018
     0.3344   0.5817   1.1702   1.6561   2.7500

          k = 0.0000 0.1909 0.0000 (  4006 PWs)   bands (ev):

   -58.0873 -32.2009 -32.1129 -32.0423 -10.8445  -9.7900  -2.3544  -0.5241
    -0.0591   0.6310   0.7878   1.7372   2.5189

          k = 0.0000 0.2864 0.0000 (  4000 PWs)   bands (ev):

   -58.0783 -32.2033 -32.1827 -32.0631 -10.4199  -9.6131  -2.1353  -0.9839
    -0.7153   0.3580   1.0466   1.4894   2.0979

          k = 0.0000 0.3819 0.0000 (  4010 PWs)   bands (ev):

   -58.0692 -32.2925 -32.1645 -32.0839  -9.9442  -9.4185  -2.3754  -1.3248
    -1.0797  -0.0044   1.1915   1.4625   1.8558

          k = 0.0000 0.4773 0.0000 (  4036 PWs)   bands (ev):

   -58.0626 -32.3570 -32.1511 -32.0991  -9.5493  -9.2620  -2.7516  -1.7714
    -1.1635  -0.2400   1.0029   1.7515   2.0192

          k = 0.0000-0.5728 0.0000 (  4034 PWs)   bands (ev):

   -58.0602 -32.3805 -32.1462 -32.1046  -9.3913  -9.2012  -2.9120  -1.9368
    -1.2321  -0.3212   0.9423   1.8501   2.1805

          k = 0.0827 0.1432 0.0000 (  4001 PWs)   bands (ev):

   -58.0894 -32.2051 -32.0905 -32.0386 -10.9374  -9.8290  -2.4398  -0.3678
     0.1568   0.5279   0.7937   1.8395   2.6076

          k = 0.0827 0.2387 0.0000 (  4009 PWs)   bands (ev):

   -58.0816 -32.1894 -32.1660 -32.0600 -10.5807  -9.6793  -2.1521  -0.8457
    -0.3837   0.2533   0.8356   1.8032   2.2690

          k = 0.0827 0.3341 0.0000 (  4008 PWs)   bands (ev):

   -58.0725 -32.2519 -32.1712 -32.0847 -10.1271  -9.4904  -2.1686  -1.0368
    -1.0352  -0.1048   1.0816   1.5092   1.9766

          k = 0.0827 0.4296 0.0000 (  4006 PWs)   bands (ev):

   -58.0647 -32.3253 -32.1553 -32.1060  -9.6840  -9.3096  -2.5118  -1.6251
    -1.0632  -0.2720   1.1829   1.2014   2.0795

          k = 0.0827 0.5251 0.0000 (  4022 PWs)   bands (ev):

   -58.0602 -32.3674 -32.1462 -32.1183  -9.3984  -9.1961  -2.7738  -1.9685
    -1.1764  -0.3293   0.9827   1.3243   2.3171

          k = 0.1653 0.2864 0.0000 (  4007 PWs)   bands (ev):

   -58.0738 -32.2312 -32.1736 -32.0908 -10.1925  -9.5154  -2.0661  -1.0000
    -0.8103  -0.3400   0.8654   1.7598   2.0357

          k = 0.1653 0.3819 0.0000 (  3993 PWs)   bands (ev):

   -58.0659 -32.2924 -32.1578 -32.1250  -9.7626  -9.3335  -2.2526  -1.5021
    -0.9103  -0.4454   0.6002   1.4592   2.0829

          k = 0.1653 0.4773 0.0000 (  4012 PWs)   bands (ev):

   -58.0602 -32.3356 -32.1511 -32.1462  -9.4124  -9.1858  -2.4498  -2.0266
    -1.0035  -0.3679   0.4705   1.0972   2.3319

          k = 0.1653 0.5728 0.0000 (  4016 PWs)   bands (ev):

   -58.0581 -32.3513 -32.1608 -32.1420  -9.2745  -9.1280  -2.5218  -2.2171
    -1.1169  -0.2996   0.4703   0.9245   2.5070

          k = 0.2480 0.4296 0.0000 (  3999 PWs)   bands (ev):

   -58.0602 -32.3145 -32.1728 -32.1462  -9.4193  -9.1807  -2.2539  -2.0533
    -0.7916  -0.3954  -0.0707   1.1696   2.3121

          k = 0.2480 0.5251 0.0000 (  4019 PWs)   bands (ev):

   -58.0569 -32.3190 -32.2087 -32.1396  -9.2071  -9.0835  -2.3931  -2.1283
    -0.9845  -0.3840  -0.2050   0.8419   2.6199

          k = 0.3307 0.5728 0.0000 (  4035 PWs)   bands (ev):

   -58.0556 -32.2924 -32.2504 -32.1371  -9.1310  -9.0432  -2.5369  -1.7368
    -1.2167  -0.7421  -0.0491   0.6546   2.8091

          k =-0.0827 0.0477 0.0000 (  4007 PWs)   bands (ev):

   -58.0939 -32.2142 -32.0460 -32.0268 -11.1315  -9.9105  -2.6488   0.0011
     0.3352   0.5811   1.1714   1.6556   2.7499

          k =-0.1653 0.0955 0.0000 (  4008 PWs)   bands (ev):

   -58.0873 -32.2009 -32.1130 -32.0421 -10.8445  -9.7902  -2.3544  -0.5246
    -0.0597   0.6318   0.7890   1.7369   2.5185

          k =-0.2480 0.1432 0.0000 (  4002 PWs)   bands (ev):

   -58.0783 -32.2034 -32.1827 -32.0629 -10.4201  -9.6133  -2.1353  -0.9844
    -0.7157   0.3593   1.0475   1.4892   2.0974

          k =-0.3307 0.1909 0.0000 (  4006 PWs)   bands (ev):

   -58.0692 -32.2926 -32.1645 -32.0837  -9.9445  -9.4189  -2.3755  -1.3249
    -1.0801  -0.0030   1.1912   1.4634   1.8551

          k =-0.4133 0.2387 0.0000 (  4036 PWs)   bands (ev):

   -58.0626 -32.3571 -32.1511 -32.0989  -9.5496  -9.2626  -2.7518  -1.7712
    -1.1636  -0.2385   1.0023   1.7526   2.0185

          k = 0.4960-0.2864 0.0000 (  4034 PWs)   bands (ev):

   -58.0602 -32.3805 -32.1462 -32.1044  -9.3916  -9.2018  -2.9122  -1.9364
    -1.2321  -0.3197   0.9417   1.8513   2.1797

          k = 0.1653 0.0000 0.0000 (  4001 PWs)   bands (ev):

   -58.0894 -32.2051 -32.0906 -32.0385 -10.9375  -9.8290  -2.4399  -0.3682
     0.1564   0.5286   0.7944   1.8393   2.6074

          k =-0.1653 0.1909 0.0000 (  4009 PWs)   bands (ev):

   -58.0816 -32.1894 -32.1661 -32.0599 -10.5807  -9.6793  -2.1521  -0.8460
    -0.3842   0.2541   0.8361   1.8032   2.2687

          k = 0.2480 0.0477 0.0000 (  4011 PWs)   bands (ev):

   -58.0816 -32.1894 -32.1661 -32.0598 -10.5808  -9.6795  -2.1521  -0.8460
    -0.3841   0.2542   0.8361   1.8031   2.2686

          k =-0.2480 0.2387 0.0000 (  4006 PWs)   bands (ev):

   -58.0725 -32.2520 -32.1712 -32.0845 -10.1272  -9.4907  -2.1686  -1.0372
    -1.0355  -0.1038   1.0823   1.5092   1.9763

          k = 0.3307 0.0955 0.0000 (  4008 PWs)   bands (ev):

   -58.0726 -32.2520 -32.1712 -32.0845 -10.1273  -9.4908  -2.1685  -1.0371
    -1.0352  -0.1039   1.0819   1.5091   1.9765

          k =-0.3307 0.2864 0.0000 (  4006 PWs)   bands (ev):

   -58.0647 -32.3254 -32.1554 -32.1058  -9.6842  -9.3100  -2.5120  -1.6250
    -1.0634  -0.2709   1.1826   1.2021   2.0792

          k = 0.4133 0.1432 0.0000 (  4006 PWs)   bands (ev):

   -58.0647 -32.3254 -32.1554 -32.1058  -9.6843  -9.3101  -2.5118  -1.6248
    -1.0634  -0.2709   1.1825   1.2017   2.0795

          k =-0.4133 0.3341 0.0000 (  4024 PWs)   bands (ev):

   -58.0602 -32.3675 -32.1462 -32.1181  -9.3987  -9.1966  -2.7741  -1.9682
    -1.1764  -0.3281   0.9822   1.3251   2.3167

          k = 0.4960 0.1909 0.0000 (  4026 PWs)   bands (ev):

   -58.0602 -32.3675 -32.1462 -32.1181  -9.3987  -9.1967  -2.7740  -1.9681
    -1.1764  -0.3281   0.9822   1.3249   2.3169

          k = 0.3307 0.0000 0.0000 (  4007 PWs)   bands (ev):

   -58.0738 -32.2312 -32.1736 -32.0907 -10.1927  -9.5157  -2.0660  -0.9999
    -0.8099  -0.3398   0.8651   1.7598   2.0358

          k =-0.2480 0.3341 0.0000 (  3994 PWs)   bands (ev):

   -58.0659 -32.2924 -32.1578 -32.1249  -9.7627  -9.3336  -2.2527  -1.5021
    -0.9105  -0.4451   0.6005   1.4592   2.0828

          k = 0.4133 0.0477 0.0000 (  3994 PWs)   bands (ev):

   -58.0659 -32.2924 -32.1578 -32.1249  -9.7629  -9.3339  -2.2524  -1.5017
    -0.9104  -0.4451   0.6000   1.4591   2.0833

          k =-0.3307 0.3819 0.0000 (  4012 PWs)   bands (ev):

   -58.0602 -32.3357 -32.1510 -32.1462  -9.4125  -9.1861  -2.4500  -2.0264
    -1.0036  -0.3673   0.4710   1.0969   2.3316

          k = 0.4960 0.0955 0.0000 (  4012 PWs)   bands (ev):

   -58.0602 -32.3357 -32.1510 -32.1462  -9.4126  -9.1863  -2.4497  -2.0261
    -1.0036  -0.3672   0.4707   1.0968   2.3321

          k =-0.4133 0.4296 0.0000 (  4016 PWs)   bands (ev):

   -58.0581 -32.3513 -32.1607 -32.1420  -9.2748  -9.1285  -2.5219  -2.2166
    -1.1169  -0.2988   0.4708   0.9240   2.5068

          k = 0.4960 0.0000 0.0000 (  3999 PWs)   bands (ev):

   -58.0602 -32.3144 -32.1728 -32.1462  -9.4195  -9.1810  -2.2535  -2.0528
    -0.7916  -0.3952  -0.0711   1.1694   2.3126

          k =-0.3307 0.4773 0.0000 (  4019 PWs)   bands (ev):

   -58.0569 -32.3190 -32.2086 -32.1396  -9.2072  -9.0836  -2.3930  -2.1283
    -0.9846  -0.3837  -0.2047   0.8417   2.6198

          k = 0.5787 0.0477 0.0000 (  4021 PWs)   bands (ev):

   -58.0569 -32.3190 -32.2086 -32.1396  -9.2073  -9.0838  -2.3928  -2.1281
    -0.9847  -0.3838  -0.2046   0.8416   2.6200

     highest occupied level (ev):     2.8091

!    total energy              =    -496.69024540 Ry

     total all-electron energy =     -9695.021632 Ry
     estimated scf accuracy    <          1.8E-11 Ry

     The total energy is the sum of the following terms:
     one-electron contribution =    -417.87322081 Ry
     hartree contribution      =     215.23245809 Ry
     xc contribution           =     -42.55228533 Ry
     ewald contribution        =      55.45275965 Ry
     one-center paw contrib.   =    -306.94995700 Ry

     convergence has been achieved in  29 iterations

     negative rho (up, down):  7.730E-08 0.000E+00

     Forces acting on atoms (cartesian axes, Ry/au):

     atom    1 type  1   force =     0.00000000    0.00005786    0.00000000
     atom    2 type  2   force =     0.00000000   -0.00002893   -0.00007761
     atom    3 type  2   force =     0.00000000   -0.00002893    0.00007761

     Total force =     0.000131     Total SCF correction =     0.000007


     Computing stress (Cartesian axis) and pressure


     negative rho (up, down):  7.730E-08 0.000E+00
          total   stress  (Ry/bohr**3)                   (kbar)     P=       -0.46
  -0.00000213   0.00000000   0.00000000           -0.31        0.00        0.00
   0.00000000  -0.00000151   0.00000000            0.00       -0.22        0.00
   0.00000000   0.00000000  -0.00000577            0.00        0.00       -0.85


     Writing output data file ./MoS2.save/
 
     init_run     :      3.51s CPU      3.65s WALL (       2 calls)
     electrons    :   2528.91s CPU   2678.37s WALL (      44 calls)
     update_pot   :     59.57s CPU     59.88s WALL (      42 calls)
     forces       :     38.25s CPU     39.67s WALL (      44 calls)
     stress       :     85.43s CPU     89.06s WALL (      44 calls)

     Called by init_run:
     wfcinit      :      0.98s CPU      1.01s WALL (       2 calls)
     potinit      :      0.78s CPU      0.80s WALL (       2 calls)
     hinit0       :      1.31s CPU      1.35s WALL (       2 calls)

     Called by electrons:
     c_bands      :   1834.75s CPU   1874.26s WALL (    1406 calls)
     sum_band     :    320.38s CPU    373.05s WALL (    1406 calls)
     v_of_rho     :     42.45s CPU     44.11s WALL (    1450 calls)
     newd         :     82.72s CPU    122.57s WALL (    1450 calls)
     PAW_pot      :    105.57s CPU    108.74s WALL (    1492 calls)
     mix_rho      :    148.30s CPU    161.59s WALL (    1406 calls)

     Called by c_bands:
     init_us_2    :     41.24s CPU     42.34s WALL (  126592 calls)
     cegterg      :   1723.20s CPU   1761.19s WALL (   60609 calls)

     Called by *egterg:
     cdiaghg      :    423.09s CPU    427.97s WALL (  269843 calls)
     h_psi        :   1038.44s CPU   1066.43s WALL (  271886 calls)
     s_psi        :     19.14s CPU     19.83s WALL (  271886 calls)
     g_psi        :      7.52s CPU      7.62s WALL (  211191 calls)

     Called by h_psi:
     h_psi:calbec :     38.70s CPU     40.01s WALL (  271886 calls)
     vloc_psi     :    974.58s CPU   1000.50s WALL (  271886 calls)
     add_vuspsi   :     20.17s CPU     20.88s WALL (  271886 calls)

     General routines
     calbec       :     51.92s CPU     53.72s WALL (  343610 calls)
     fft          :     28.25s CPU     30.62s WALL (   19904 calls)
     ffts         :     93.32s CPU    102.10s WALL (  265152 calls)
     fftw         :   1059.04s CPU   1087.64s WALL ( 5440940 calls)
     interpolate  :      2.61s CPU      2.86s WALL (    1450 calls)
 
     Parallel routines
     fft_scatt_xy :    132.08s CPU    135.89s WALL ( 5725996 calls)
     fft_scatt_yz :    402.94s CPU    417.95s WALL ( 5725996 calls)
 
     PWSCF        :  45m23.64s CPU  48m 0.37s WALL

 
   This run was terminated on:  12:35:34  15Nov2021            

=------------------------------------------------------------------------------=
   JOB DONE.
=------------------------------------------------------------------------------=
