
     Program PWSCF v.6.7MaX starts on  7Dec2021 at 11: 1:42 

     This program is part of the open-source Quantum ESPRESSO suite
     for quantum simulation of materials; please cite
         "P. Giannozzi et al., J. Phys.:Condens. Matter 21 395502 (2009);
         "P. Giannozzi et al., J. Phys.:Condens. Matter 29 465901 (2017);
          URL http://www.quantum-espresso.org", 
     in publications or presentations arising from this work. More details at
     http://www.quantum-espresso.org/quote

     Parallel version (MPI), running on    10 processors

     MPI processes distributed on     1 nodes
     R & G space division:  proc/nbgrp/npool/nimage =      10
     Waiting for input...
     Reading input from standard input

     Current dimensions of program PWSCF are:
     Max number of different atomic species (ntypx) = 10
     Max number of k-points (npk) =  40000
     Max angular momentum in pseudopotentials (lmaxx) =  3
     file B.pbe-n-rrkjus_psl.1.0.0.UPF: wavefunction(s)  2S renormalized
     file N.pbe-rrkjus.UPF: wavefunction(s)  2S renormalized

     Subspace diagonalization in iterative solution of the eigenvalue problem:
     one sub-group per band group will be used
     scalapack distributed-memory algorithm (size of sub-group:  3*  3 procs)

 
     Parallelization info
     --------------------
     sticks:   dense  smooth     PW     G-vecs:    dense   smooth      PW
     Min         634     634    175                91298    91298   13309
     Max         635     635    176                91309    91309   13315
     Sum        6347    6347   1751               913033   913033  133131
 


     bravais-lattice index     =            8
     lattice parameter (alat)  =       6.6140  a.u.
     unit-cell volume          =    9447.6683 (a.u.)^3
     number of atoms/cell      =            2
     number of atomic types    =            2
     number of electrons       =         8.00
     number of Kohn-Sham states=            4
     kinetic-energy cutoff     =      80.0000  Ry
     charge density cutoff     =     320.0000  Ry
     scf convergence threshold =      1.0E-08
     mixing beta               =       0.3000
     number of iterations used =            8  local-TF  mixing
     energy convergence thresh.=      1.0E-04
     force convergence thresh. =      1.0E-03
     press convergence thresh. =      5.0E-01
     Exchange-correlation=  SLA  PW   PBE  PBE
                           (   1   4   3   4   0   0   0)
     nstep                     =           50


     celldm(1)=   6.614041  celldm(2)=   5.714286  celldm(3)=   5.714286
     celldm(4)=   0.000000  celldm(5)=   0.000000  celldm(6)=   0.000000

     crystal axes: (cart. coord. in units of alat)
               a(1) = (   1.000000   0.000000   0.000000 )  
               a(2) = (   0.000000   5.714286   0.000000 )  
               a(3) = (   0.000000   0.000000   5.714286 )  

     reciprocal axes: (cart. coord. in units 2 pi/alat)
               b(1) = (  1.000000  0.000000  0.000000 )  
               b(2) = (  0.000000  0.175000  0.000000 )  
               b(3) = (  0.000000  0.000000  0.175000 )  


     PseudoPot. # 1 for B  read from file:
     ../Pseudo/B.pbe-n-rrkjus_psl.1.0.0.UPF
     MD5 check sum: 63df43e07c319b5f28dc02596645f850
     Pseudo is Ultrasoft + core correction, Zval =  3.0
     Generated using "atomic" code by A. Dal Corso  v.5.1.2
     Using radial grid of 1059 points,  4 beta functions with: 
                l(1) =   0
                l(2) =   0
                l(3) =   1
                l(4) =   1
     Q(r) pseudized with 0 coefficients 


     PseudoPot. # 2 for N  read from file:
     ../Pseudo/N.pbe-rrkjus.UPF
     MD5 check sum: 0c3fbe5807a93f9ba59d5a7019aa238b
     Pseudo is Ultrasoft, Zval =  5.0
     Generated by new atomic code, or converted to UPF format
     Using radial grid of 1257 points,  4 beta functions with: 
                l(1) =   0
                l(2) =   0
                l(3) =   1
                l(4) =   1
     Q(r) pseudized with 0 coefficients 


     atomic species   valence    mass     pseudopotential
        B              3.00    10.81100     B ( 1.00)
        N              5.00    14.00670     N ( 1.00)

      8 Sym. Ops. (no inversion) found



   Cartesian axes

     site n.     atom                  positions (alat units)
         1           B   tau(   1) = (  -0.0723030   0.0000000   0.0000000  )
         2           N   tau(   2) = (   0.2899668   0.0000000   0.0000000  )

     number of k points=     7
                       cart. coord. in units 2pi/alat
        k(    1) = (   0.0000000   0.0000000   0.0000000), wk =   0.1666667
        k(    2) = (   0.0833333   0.0000000   0.0000000), wk =   0.3333333
        k(    3) = (   0.1666667   0.0000000   0.0000000), wk =   0.3333333
        k(    4) = (   0.2500000   0.0000000   0.0000000), wk =   0.3333333
        k(    5) = (   0.3333333   0.0000000   0.0000000), wk =   0.3333333
        k(    6) = (   0.4166667   0.0000000   0.0000000), wk =   0.3333333
        k(    7) = (  -0.5000000   0.0000000   0.0000000), wk =   0.1666667

     Dense  grid:   913033 G-vectors     FFT dimensions: (  40, 216, 216)

     Estimated max dynamical RAM per process >     133.47 MB

     Estimated total dynamical RAM >       1.30 GB

     Initial potential from superposition of free atoms

     starting charge    7.99971, renormalised to    8.00000

     negative rho (up, down):  4.431E-04 0.000E+00
     Starting wfcs are    8 randomized atomic wfcs

     total cpu time spent up to now is        4.9 secs

     Self-consistent Calculation

     iteration #  1     ecut=    80.00 Ry     beta= 0.30
     Davidson diagonalization with overlap
     ethr =  1.00E-02,  avg # of iterations =  2.0

     negative rho (up, down):  9.249E-07 0.000E+00

     total cpu time spent up to now is       26.4 secs

     total energy              =     -25.91778705 Ry
     estimated scf accuracy    <       0.85849480 Ry

     iteration #  2     ecut=    80.00 Ry     beta= 0.30
     Davidson diagonalization with overlap
     ethr =  1.00E-02,  avg # of iterations =  1.0

     negative rho (up, down):  1.953E-07 0.000E+00

     total cpu time spent up to now is       30.9 secs

     total energy              =     -25.82767702 Ry
     estimated scf accuracy    <       0.32663195 Ry

     iteration #  3     ecut=    80.00 Ry     beta= 0.30
     Davidson diagonalization with overlap
     ethr =  4.08E-03,  avg # of iterations =  2.0

     negative rho (up, down):  1.598E-07 0.000E+00

     total cpu time spent up to now is       36.3 secs

     total energy              =     -25.88056965 Ry
     estimated scf accuracy    <       0.03536543 Ry

     iteration #  4     ecut=    80.00 Ry     beta= 0.30
     Davidson diagonalization with overlap
     ethr =  4.42E-04,  avg # of iterations =  5.0

     negative rho (up, down):  2.410E-07 0.000E+00

     total cpu time spent up to now is       41.3 secs

     total energy              =     -25.88328870 Ry
     estimated scf accuracy    <       0.07018292 Ry

     iteration #  5     ecut=    80.00 Ry     beta= 0.30
     Davidson diagonalization with overlap
     ethr =  4.42E-04,  avg # of iterations =  2.0

     negative rho (up, down):  3.128E-07 0.000E+00

     total cpu time spent up to now is       46.1 secs

     total energy              =     -25.87021232 Ry
     estimated scf accuracy    <       0.02529053 Ry

     iteration #  6     ecut=    80.00 Ry     beta= 0.30
     Davidson diagonalization with overlap
     ethr =  3.16E-04,  avg # of iterations =  6.1

     negative rho (up, down):  1.808E-07 0.000E+00

     total cpu time spent up to now is       51.0 secs

     total energy              =     -25.89173178 Ry
     estimated scf accuracy    <       0.11416797 Ry

     iteration #  7     ecut=    80.00 Ry     beta= 0.30
     Davidson diagonalization with overlap
     ethr =  3.16E-04,  avg # of iterations =  1.0

     negative rho (up, down):  1.838E-07 0.000E+00

     total cpu time spent up to now is       54.6 secs

     total energy              =     -25.89602266 Ry
     estimated scf accuracy    <       0.07187246 Ry

     iteration #  8     ecut=    80.00 Ry     beta= 0.30
     Davidson diagonalization with overlap
     ethr =  3.16E-04,  avg # of iterations =  1.0

     negative rho (up, down):  4.044E-07 0.000E+00

     total cpu time spent up to now is       58.0 secs

     total energy              =     -25.84482908 Ry
     estimated scf accuracy    <       0.07811631 Ry

     iteration #  9     ecut=    80.00 Ry     beta= 0.30
     Davidson diagonalization with overlap
     ethr =  3.16E-04,  avg # of iterations =  7.4

     negative rho (up, down):  4.328E-04 0.000E+00

     total cpu time spent up to now is       65.5 secs

     total energy              =     -25.99952972 Ry
     estimated scf accuracy    <       0.37684272 Ry

     iteration # 10     ecut=    80.00 Ry     beta= 0.30
     Davidson diagonalization with overlap
     ethr =  3.16E-04,  avg # of iterations =  4.1

     negative rho (up, down):  1.123E-07 0.000E+00

     total cpu time spent up to now is       69.8 secs

     total energy              =     -25.90693483 Ry
     estimated scf accuracy    <       0.66304604 Ry

     iteration # 11     ecut=    80.00 Ry     beta= 0.30
     Davidson diagonalization with overlap
     ethr =  3.16E-04,  avg # of iterations =  3.0

     negative rho (up, down):  1.644E-07 0.000E+00

     total cpu time spent up to now is       73.7 secs

     total energy              =     -25.78728515 Ry
     estimated scf accuracy    <       0.30033610 Ry

     iteration # 12     ecut=    80.00 Ry     beta= 0.30
     Davidson diagonalization with overlap
     ethr =  3.16E-04,  avg # of iterations =  5.0

     negative rho (up, down):  4.503E-03 0.000E+00

     total cpu time spent up to now is       85.7 secs

     total energy              =     -25.91623988 Ry
     estimated scf accuracy    <       0.09304611 Ry

     iteration # 13     ecut=    80.00 Ry     beta= 0.30
     Davidson diagonalization with overlap
     ethr =  3.16E-04,  avg # of iterations =  2.0

     negative rho (up, down):  5.883E-03 0.000E+00

     total cpu time spent up to now is       96.2 secs

     total energy              =     -25.92688304 Ry
     estimated scf accuracy    <       0.14090380 Ry

     iteration # 14     ecut=    80.00 Ry     beta= 0.30
     Davidson diagonalization with overlap
     ethr =  3.16E-04,  avg # of iterations =  1.1

     negative rho (up, down):  1.485E-02 0.000E+00

     total cpu time spent up to now is      107.6 secs

     total energy              =     -25.88386196 Ry
     estimated scf accuracy    <       0.17969659 Ry

     iteration # 15     ecut=    80.00 Ry     beta= 0.30
     Davidson diagonalization with overlap
     ethr =  3.16E-04,  avg # of iterations =  2.9

     negative rho (up, down):  5.868E-03 0.000E+00

     total cpu time spent up to now is      124.7 secs

     total energy              =     -25.87548961 Ry
     estimated scf accuracy    <       0.06925625 Ry

     iteration # 16     ecut=    80.00 Ry     beta= 0.30
     Davidson diagonalization with overlap
     ethr =  3.16E-04,  avg # of iterations =  3.0

     negative rho (up, down):  6.144E-03 0.000E+00

     total cpu time spent up to now is      139.9 secs

     total energy              =     -25.88223115 Ry
     estimated scf accuracy    <       0.00876448 Ry

     iteration # 17     ecut=    80.00 Ry     beta= 0.30
     Davidson diagonalization with overlap
     ethr =  1.10E-04,  avg # of iterations =  2.4

     negative rho (up, down):  9.362E-03 0.000E+00

     total cpu time spent up to now is      152.6 secs

     total energy              =     -25.88452837 Ry
     estimated scf accuracy    <       0.00279299 Ry

     iteration # 18     ecut=    80.00 Ry     beta= 0.30
     Davidson diagonalization with overlap
     ethr =  3.49E-05,  avg # of iterations =  1.1

     negative rho (up, down):  5.439E-03 0.000E+00

     total cpu time spent up to now is      162.6 secs

     total energy              =     -25.88275730 Ry
     estimated scf accuracy    <       0.00411824 Ry

     iteration # 19     ecut=    80.00 Ry     beta= 0.30
     Davidson diagonalization with overlap
     ethr =  3.49E-05,  avg # of iterations =  3.3

     negative rho (up, down):  1.321E-02 0.000E+00

     total cpu time spent up to now is      176.2 secs

     total energy              =     -25.88293316 Ry
     estimated scf accuracy    <       0.00657706 Ry

     iteration # 20     ecut=    80.00 Ry     beta= 0.30
     Davidson diagonalization with overlap
     ethr =  3.49E-05,  avg # of iterations =  3.0

     negative rho (up, down):  5.733E-03 0.000E+00

     total cpu time spent up to now is      197.2 secs

     total energy              =     -25.88539901 Ry
     estimated scf accuracy    <       0.00044909 Ry

     iteration # 21     ecut=    80.00 Ry     beta= 0.30
     Davidson diagonalization with overlap
     ethr =  5.61E-06,  avg # of iterations =  6.6

     negative rho (up, down):  5.488E-03 0.000E+00

     total cpu time spent up to now is      211.1 secs

     total energy              =     -25.88094012 Ry
     estimated scf accuracy    <       0.01982433 Ry

     iteration # 22     ecut=    80.00 Ry     beta= 0.30
     Davidson diagonalization with overlap
     ethr =  5.61E-06,  avg # of iterations =  7.4

     negative rho (up, down):  6.160E-03 0.000E+00

     total cpu time spent up to now is      229.6 secs

     total energy              =     -25.88424688 Ry
     estimated scf accuracy    <       0.00016597 Ry

     iteration # 23     ecut=    80.00 Ry     beta= 0.30
     Davidson diagonalization with overlap
     ethr =  2.07E-06,  avg # of iterations =  3.1

     negative rho (up, down):  2.777E-03 0.000E+00

     total cpu time spent up to now is      248.2 secs

     total energy              =     -25.88417896 Ry
     estimated scf accuracy    <       0.00026079 Ry

     iteration # 24     ecut=    80.00 Ry     beta= 0.30
     Davidson diagonalization with overlap
     ethr =  2.07E-06,  avg # of iterations =  2.1

     negative rho (up, down):  1.998E-03 0.000E+00

     total cpu time spent up to now is      261.0 secs

     total energy              =     -25.88419804 Ry
     estimated scf accuracy    <       0.00007320 Ry

     iteration # 25     ecut=    80.00 Ry     beta= 0.30
     Davidson diagonalization with overlap
     ethr =  9.15E-07,  avg # of iterations =  1.6

     negative rho (up, down):  1.821E-03 0.000E+00

     total cpu time spent up to now is      284.6 secs

     total energy              =     -25.88419222 Ry
     estimated scf accuracy    <       0.00002408 Ry

     iteration # 26     ecut=    80.00 Ry     beta= 0.30
     Davidson diagonalization with overlap
     ethr =  3.01E-07,  avg # of iterations =  5.0

     negative rho (up, down):  1.796E-03 0.000E+00

     total cpu time spent up to now is      312.9 secs

     total energy              =     -25.88420354 Ry
     estimated scf accuracy    <       0.00006242 Ry

     iteration # 27     ecut=    80.00 Ry     beta= 0.30
     Davidson diagonalization with overlap
     ethr =  3.01E-07,  avg # of iterations =  2.0

     negative rho (up, down):  1.798E-03 0.000E+00

     total cpu time spent up to now is      333.8 secs

     total energy              =     -25.88420882 Ry
     estimated scf accuracy    <       0.00000945 Ry

     iteration # 28     ecut=    80.00 Ry     beta= 0.30
     Davidson diagonalization with overlap
     ethr =  1.18E-07,  avg # of iterations =  1.1

     negative rho (up, down):  1.685E-03 0.000E+00

     total cpu time spent up to now is      356.0 secs

     total energy              =     -25.88420791 Ry
     estimated scf accuracy    <       0.00000702 Ry

     iteration # 29     ecut=    80.00 Ry     beta= 0.30
     Davidson diagonalization with overlap
     ethr =  8.78E-08,  avg # of iterations =  2.6

     negative rho (up, down):  1.414E-03 0.000E+00

     total cpu time spent up to now is      371.9 secs

     total energy              =     -25.88420948 Ry
     estimated scf accuracy    <       0.00000058 Ry

     iteration # 30     ecut=    80.00 Ry     beta= 0.30
     Davidson diagonalization with overlap
     ethr =  7.25E-09,  avg # of iterations =  4.4

     negative rho (up, down):  1.422E-03 0.000E+00

     total cpu time spent up to now is      391.9 secs

     total energy              =     -25.88420989 Ry
     estimated scf accuracy    <       0.00000008 Ry

     iteration # 31     ecut=    80.00 Ry     beta= 0.30
     Davidson diagonalization with overlap
     ethr =  1.06E-09,  avg # of iterations =  4.9

     negative rho (up, down):  1.426E-03 0.000E+00

     total cpu time spent up to now is      408.9 secs

     total energy              =     -25.88421005 Ry
     estimated scf accuracy    <       0.00000060 Ry

     iteration # 32     ecut=    80.00 Ry     beta= 0.30
     Davidson diagonalization with overlap
     ethr =  1.06E-09,  avg # of iterations =  1.9

     negative rho (up, down):  1.419E-03 0.000E+00

     total cpu time spent up to now is      427.8 secs

     total energy              =     -25.88421015 Ry
     estimated scf accuracy    <       0.00000085 Ry

     iteration # 33     ecut=    80.00 Ry     beta= 0.30
     Davidson diagonalization with overlap
     ethr =  1.06E-09,  avg # of iterations =  2.9

     negative rho (up, down):  1.421E-03 0.000E+00

     total cpu time spent up to now is      441.6 secs

     total energy              =     -25.88421012 Ry
     estimated scf accuracy    <       0.00000152 Ry

     iteration # 34     ecut=    80.00 Ry     beta= 0.30
     Davidson diagonalization with overlap
     ethr =  1.06E-09,  avg # of iterations =  1.0

     negative rho (up, down):  1.423E-03 0.000E+00

     total cpu time spent up to now is      455.5 secs

     total energy              =     -25.88421006 Ry
     estimated scf accuracy    <       0.00000142 Ry

     iteration # 35     ecut=    80.00 Ry     beta= 0.30
     Davidson diagonalization with overlap
     ethr =  1.06E-09,  avg # of iterations =  1.0

     negative rho (up, down):  1.416E-03 0.000E+00

     total cpu time spent up to now is      465.6 secs

     total energy              =     -25.88421006 Ry
     estimated scf accuracy    <       0.00000122 Ry

     iteration # 36     ecut=    80.00 Ry     beta= 0.30
     Davidson diagonalization with overlap
     ethr =  1.06E-09,  avg # of iterations =  1.0

     negative rho (up, down):  1.389E-03 0.000E+00

     total cpu time spent up to now is      480.2 secs

     total energy              =     -25.88420998 Ry
     estimated scf accuracy    <       0.00000122 Ry

     iteration # 37     ecut=    80.00 Ry     beta= 0.30
     Davidson diagonalization with overlap
     ethr =  1.06E-09,  avg # of iterations =  1.1

     negative rho (up, down):  1.390E-03 0.000E+00

     total cpu time spent up to now is      494.1 secs

     total energy              =     -25.88420954 Ry
     estimated scf accuracy    <       0.00000100 Ry

     iteration # 38     ecut=    80.00 Ry     beta= 0.30
     Davidson diagonalization with overlap
     ethr =  1.06E-09,  avg # of iterations =  6.0

     negative rho (up, down):  1.413E-03 0.000E+00

     total cpu time spent up to now is      515.6 secs

     total energy              =     -25.88420976 Ry
     estimated scf accuracy    <       0.00000031 Ry

     iteration # 39     ecut=    80.00 Ry     beta= 0.30
     Davidson diagonalization with overlap
     ethr =  1.06E-09,  avg # of iterations =  5.0

     negative rho (up, down):  1.414E-03 0.000E+00

     total cpu time spent up to now is      538.4 secs

     total energy              =     -25.88420986 Ry
     estimated scf accuracy    <       0.00000010 Ry

     iteration # 40     ecut=    80.00 Ry     beta= 0.30
     Davidson diagonalization with overlap
     ethr =  1.06E-09,  avg # of iterations =  1.0

     negative rho (up, down):  1.413E-03 0.000E+00

     total cpu time spent up to now is      554.1 secs

     total energy              =     -25.88420984 Ry
     estimated scf accuracy    <       0.00000004 Ry

     iteration # 41     ecut=    80.00 Ry     beta= 0.30
     Davidson diagonalization with overlap
     ethr =  4.80E-10,  avg # of iterations =  4.4

     negative rho (up, down):  1.413E-03 0.000E+00

     total cpu time spent up to now is      584.2 secs

     total energy              =     -25.88420986 Ry
     estimated scf accuracy    <       0.00000005 Ry

     iteration # 42     ecut=    80.00 Ry     beta= 0.30
     Davidson diagonalization with overlap
     ethr =  4.80E-10,  avg # of iterations =  1.0

     negative rho (up, down):  1.415E-03 0.000E+00

     total cpu time spent up to now is      599.2 secs

     total energy              =     -25.88420985 Ry
     estimated scf accuracy    <       0.00000003 Ry

     iteration # 43     ecut=    80.00 Ry     beta= 0.30
     Davidson diagonalization with overlap
     ethr =  3.57E-10,  avg # of iterations =  2.0

     negative rho (up, down):  1.415E-03 0.000E+00

     total cpu time spent up to now is      600.5 secs

     End of self-consistent calculation

          k = 0.0000 0.0000 0.0000 (114271 PWs)   bands (ev):

   -20.3054 -10.1705  -8.1813  -8.1813

          k = 0.0833 0.0000 0.0000 (114347 PWs)   bands (ev):

   -20.2950 -10.3100  -8.1380  -8.1380

          k = 0.1667 0.0000 0.0000 (114243 PWs)   bands (ev):

   -20.2662 -10.6449  -8.0142  -8.0142

          k = 0.2500 0.0000 0.0000 (114179 PWs)   bands (ev):

   -20.2260 -11.0300  -7.8302  -7.8302

          k = 0.3333 0.0000 0.0000 (113995 PWs)   bands (ev):

   -20.1849 -11.3624  -7.6248  -7.6248

          k = 0.4167 0.0000 0.0000 (113918 PWs)   bands (ev):

   -20.1542 -11.5826  -7.4565  -7.4565

          k =-0.5000 0.0000 0.0000 (113858 PWs)   bands (ev):

   -20.1428 -11.6593  -7.3902  -7.3902

     highest occupied level (ev):    -7.3902

!    total energy              =     -25.88420986 Ry
     estimated scf accuracy    <          3.4E-09 Ry

     The total energy is the sum of the following terms:
     one-electron contribution =     -79.26096371 Ry
     hartree contribution      =      40.63354337 Ry
     xc contribution           =      -7.51946051 Ry
     ewald contribution        =      20.26267099 Ry

     convergence has been achieved in  43 iterations

     negative rho (up, down):  1.415E-03 0.000E+00

     Forces acting on atoms (cartesian axes, Ry/au):

     atom    1 type  1   force =    -0.09431372    0.00000000    0.00000000
     atom    2 type  2   force =     0.09431372    0.00000000    0.00000000

     Total force =     0.133380     Total SCF correction =     0.000060


     Computing stress (Cartesian axis) and pressure


     negative rho (up, down):  1.415E-03 0.000E+00
          total   stress  (Ry/bohr**3)                   (kbar)     P=       -5.02
  -0.00010231   0.00000000   0.00000000          -15.05        0.00        0.00
   0.00000000  -0.00000003   0.00000000            0.00        0.00        0.00
   0.00000000   0.00000000  -0.00000003            0.00        0.00        0.00


     BFGS Geometry Optimization
     Energy error            =      0.0E+00
     Gradient error          =      9.4E-02
     Cell gradient error     =      1.0E-04


     number of scf cycles    =   1
     number of bfgs steps    =   0

     enthalpy new            =     -25.8842098641 Ry

     new trust radius        =       0.0943137171 bohr
     new conv_thr            =       0.0000000100 Ry

     new unit-cell volume =   9423.48677 a.u.^3 (  1396.41667 Ang^3 )
     density =      0.02951 g/cm^3

CELL_PARAMETERS (alat=  6.61404144)
   0.997442155   0.000000000   0.000000000
   0.000000000   5.714280907   0.000000000
   0.000000000   0.000000000   5.714280907

ATOMIC_POSITIONS (angstrom)
B            -0.3021941222        0.0000000000        0.0000000000    1   0   0
N             1.0620688185        0.0000000000        0.0000000000    1   0   0



     Writing output data file ./Chain2atoms.save/
     NEW-OLD atomic charge density approx. for the potential

     negative rho (up, down):  1.270E-03 0.000E+00
     extrapolated charge    7.97947, renormalised to    8.00000

     total cpu time spent up to now is      614.2 secs

     Self-consistent Calculation

     iteration #  1     ecut=    80.00 Ry     beta= 0.30
     Davidson diagonalization with overlap
     ethr =  1.00E-06,  avg # of iterations = 12.7

     negative rho (up, down):  1.808E-03 0.000E+00

     total cpu time spent up to now is      639.7 secs

     total energy              =     -25.88966995 Ry
     estimated scf accuracy    <       0.00969578 Ry

     iteration #  2     ecut=    80.00 Ry     beta= 0.30
     Davidson diagonalization with overlap
     ethr =  1.21E-04,  avg # of iterations =  1.0

     negative rho (up, down):  5.809E-03 0.000E+00

     total cpu time spent up to now is      657.4 secs

     total energy              =     -25.88670218 Ry
     estimated scf accuracy    <       0.00702460 Ry

     iteration #  3     ecut=    80.00 Ry     beta= 0.30
     Davidson diagonalization with overlap
     ethr =  8.78E-05,  avg # of iterations =  1.6

     negative rho (up, down):  8.569E-03 0.000E+00

     total cpu time spent up to now is      667.6 secs

     total energy              =     -25.88682298 Ry
     estimated scf accuracy    <       0.00098118 Ry

     iteration #  4     ecut=    80.00 Ry     beta= 0.30
     Davidson diagonalization with overlap
     ethr =  1.23E-05,  avg # of iterations =  3.0

     negative rho (up, down):  7.610E-03 0.000E+00

     total cpu time spent up to now is      680.2 secs

     total energy              =     -25.88727448 Ry
     estimated scf accuracy    <       0.00022330 Ry

     iteration #  5     ecut=    80.00 Ry     beta= 0.30
     Davidson diagonalization with overlap
     ethr =  2.79E-06,  avg # of iterations =  2.3

     negative rho (up, down):  7.308E-03 0.000E+00

     total cpu time spent up to now is      703.8 secs

     total energy              =     -25.88729667 Ry
     estimated scf accuracy    <       0.00008481 Ry

     iteration #  6     ecut=    80.00 Ry     beta= 0.30
     Davidson diagonalization with overlap
     ethr =  1.06E-06,  avg # of iterations =  4.7

     negative rho (up, down):  7.326E-03 0.000E+00

     total cpu time spent up to now is      721.3 secs

     total energy              =     -25.88732343 Ry
     estimated scf accuracy    <       0.00026976 Ry

     iteration #  7     ecut=    80.00 Ry     beta= 0.30
     Davidson diagonalization with overlap
     ethr =  1.06E-06,  avg # of iterations =  1.0

     negative rho (up, down):  6.983E-03 0.000E+00

     total cpu time spent up to now is      737.5 secs

     total energy              =     -25.88725309 Ry
     estimated scf accuracy    <       0.00019371 Ry

     iteration #  8     ecut=    80.00 Ry     beta= 0.30
     Davidson diagonalization with overlap
     ethr =  1.06E-06,  avg # of iterations =  3.0

     negative rho (up, down):  6.393E-03 0.000E+00

     total cpu time spent up to now is      755.9 secs

     total energy              =     -25.88729938 Ry
     estimated scf accuracy    <       0.00004201 Ry

     iteration #  9     ecut=    80.00 Ry     beta= 0.30
     Davidson diagonalization with overlap
     ethr =  5.25E-07,  avg # of iterations =  5.7

     negative rho (up, down):  6.330E-03 0.000E+00

     total cpu time spent up to now is      766.7 secs

     total energy              =     -25.88730036 Ry
     estimated scf accuracy    <       0.00059136 Ry

     iteration # 10     ecut=    80.00 Ry     beta= 0.30
     Davidson diagonalization with overlap
     ethr =  5.25E-07,  avg # of iterations =  2.7

     negative rho (up, down):  3.477E-03 0.000E+00

     total cpu time spent up to now is      780.7 secs

     total energy              =     -25.88713803 Ry
     estimated scf accuracy    <       0.00031722 Ry

     iteration # 11     ecut=    80.00 Ry     beta= 0.30
     Davidson diagonalization with overlap
     ethr =  5.25E-07,  avg # of iterations =  5.9

     negative rho (up, down):  2.564E-03 0.000E+00

     total cpu time spent up to now is      800.1 secs

     total energy              =     -25.88744607 Ry
     estimated scf accuracy    <       0.00028643 Ry

     iteration # 12     ecut=    80.00 Ry     beta= 0.30
     Davidson diagonalization with overlap
     ethr =  5.25E-07,  avg # of iterations =  6.6

     negative rho (up, down):  2.220E-03 0.000E+00

     total cpu time spent up to now is      815.6 secs

     total energy              =     -25.88737865 Ry
     estimated scf accuracy    <       0.00171443 Ry

     iteration # 13     ecut=    80.00 Ry     beta= 0.30
     Davidson diagonalization with overlap
     ethr =  5.25E-07,  avg # of iterations =  2.3

     negative rho (up, down):  1.776E-03 0.000E+00

     total cpu time spent up to now is      828.1 secs

     total energy              =     -25.88686525 Ry
     estimated scf accuracy    <       0.00117240 Ry

     iteration # 14     ecut=    80.00 Ry     beta= 0.30
     Davidson diagonalization with overlap
     ethr =  5.25E-07,  avg # of iterations =  9.1

     negative rho (up, down):  1.779E-03 0.000E+00

     total cpu time spent up to now is      841.3 secs

     total energy              =     -25.88721005 Ry
     estimated scf accuracy    <       0.00048971 Ry

     iteration # 15     ecut=    80.00 Ry     beta= 0.30
     Davidson diagonalization with overlap
     ethr =  5.25E-07,  avg # of iterations =  3.9

     negative rho (up, down):  1.814E-03 0.000E+00

     total cpu time spent up to now is      853.7 secs

     total energy              =     -25.88722655 Ry
     estimated scf accuracy    <       0.00011682 Ry

     iteration # 16     ecut=    80.00 Ry     beta= 0.30
     Davidson diagonalization with overlap
     ethr =  5.25E-07,  avg # of iterations =  1.4

     negative rho (up, down):  1.852E-03 0.000E+00

     total cpu time spent up to now is      870.4 secs

     total energy              =     -25.88721199 Ry
     estimated scf accuracy    <       0.00007087 Ry

     iteration # 17     ecut=    80.00 Ry     beta= 0.30
     Davidson diagonalization with overlap
     ethr =  5.25E-07,  avg # of iterations =  2.9

     negative rho (up, down):  1.274E-03 0.000E+00

     total cpu time spent up to now is      884.0 secs

     total energy              =     -25.88724626 Ry
     estimated scf accuracy    <       0.00000497 Ry

     iteration # 18     ecut=    80.00 Ry     beta= 0.30
     Davidson diagonalization with overlap
     ethr =  6.21E-08,  avg # of iterations =  9.0

     negative rho (up, down):  1.285E-03 0.000E+00

     total cpu time spent up to now is      897.5 secs

     total energy              =     -25.88730593 Ry
     estimated scf accuracy    <       0.00027857 Ry

     iteration # 19     ecut=    80.00 Ry     beta= 0.30
     Davidson diagonalization with overlap
     ethr =  6.21E-08,  avg # of iterations =  4.3

     negative rho (up, down):  1.272E-03 0.000E+00

     total cpu time spent up to now is      912.9 secs

     total energy              =     -25.88734804 Ry
     estimated scf accuracy    <       0.00047196 Ry

     iteration # 20     ecut=    80.00 Ry     beta= 0.30
     Davidson diagonalization with overlap
     ethr =  6.21E-08,  avg # of iterations =  4.0

     negative rho (up, down):  1.385E-03 0.000E+00

     total cpu time spent up to now is      928.8 secs

     total energy              =     -25.88726413 Ry
     estimated scf accuracy    <       0.00070206 Ry

     iteration # 21     ecut=    80.00 Ry     beta= 0.30
     Davidson diagonalization with overlap
     ethr =  6.21E-08,  avg # of iterations =  6.3

     negative rho (up, down):  1.425E-03 0.000E+00

     total cpu time spent up to now is      943.7 secs

     total energy              =     -25.88718842 Ry
     estimated scf accuracy    <       0.00032235 Ry

     iteration # 22     ecut=    80.00 Ry     beta= 0.30
     Davidson diagonalization with overlap
     ethr =  6.21E-08,  avg # of iterations =  7.7

     negative rho (up, down):  1.200E-03 0.000E+00

     total cpu time spent up to now is      965.2 secs

     total energy              =     -25.88722697 Ry
     estimated scf accuracy    <       0.00000586 Ry

     iteration # 23     ecut=    80.00 Ry     beta= 0.30
     Davidson diagonalization with overlap
     ethr =  6.21E-08,  avg # of iterations =  3.0

     negative rho (up, down):  1.159E-03 0.000E+00

     total cpu time spent up to now is      979.1 secs

     total energy              =     -25.88722147 Ry
     estimated scf accuracy    <       0.00002255 Ry

     iteration # 24     ecut=    80.00 Ry     beta= 0.30
     Davidson diagonalization with overlap
     ethr =  6.21E-08,  avg # of iterations =  2.9

     negative rho (up, down):  1.151E-03 0.000E+00

     total cpu time spent up to now is      998.9 secs

     total energy              =     -25.88722241 Ry
     estimated scf accuracy    <       0.00000371 Ry

     iteration # 25     ecut=    80.00 Ry     beta= 0.30
     Davidson diagonalization with overlap
     ethr =  4.64E-08,  avg # of iterations =  2.1

     negative rho (up, down):  1.140E-03 0.000E+00

     total cpu time spent up to now is     1014.5 secs

     total energy              =     -25.88722247 Ry
     estimated scf accuracy    <       0.00000084 Ry

     iteration # 26     ecut=    80.00 Ry     beta= 0.30
     Davidson diagonalization with overlap
     ethr =  1.05E-08,  avg # of iterations =  6.4

     negative rho (up, down):  1.139E-03 0.000E+00

     total cpu time spent up to now is     1029.7 secs

     total energy              =     -25.88722328 Ry
     estimated scf accuracy    <       0.00000300 Ry

     iteration # 27     ecut=    80.00 Ry     beta= 0.30
     Davidson diagonalization with overlap
     ethr =  1.05E-08,  avg # of iterations =  1.7

     negative rho (up, down):  1.138E-03 0.000E+00

     total cpu time spent up to now is     1043.1 secs

     total energy              =     -25.88722352 Ry
     estimated scf accuracy    <       0.00000131 Ry

     iteration # 28     ecut=    80.00 Ry     beta= 0.30
     Davidson diagonalization with overlap
     ethr =  1.05E-08,  avg # of iterations =  1.0

     negative rho (up, down):  1.143E-03 0.000E+00

     total cpu time spent up to now is     1060.0 secs

     total energy              =     -25.88722329 Ry
     estimated scf accuracy    <       0.00000151 Ry

     iteration # 29     ecut=    80.00 Ry     beta= 0.30
     Davidson diagonalization with overlap
     ethr =  1.05E-08,  avg # of iterations =  1.0

     negative rho (up, down):  1.149E-03 0.000E+00

     total cpu time spent up to now is     1077.3 secs

     total energy              =     -25.88722309 Ry
     estimated scf accuracy    <       0.00000061 Ry

     iteration # 30     ecut=    80.00 Ry     beta= 0.30
     Davidson diagonalization with overlap
     ethr =  7.65E-09,  avg # of iterations =  3.9

     negative rho (up, down):  1.148E-03 0.000E+00

     total cpu time spent up to now is     1093.6 secs

     total energy              =     -25.88722327 Ry
     estimated scf accuracy    <       0.00000019 Ry

     iteration # 31     ecut=    80.00 Ry     beta= 0.30
     Davidson diagonalization with overlap
     ethr =  2.41E-09,  avg # of iterations =  2.4

     negative rho (up, down):  1.145E-03 0.000E+00

     total cpu time spent up to now is     1095.1 secs

     End of self-consistent calculation

          k = 0.0000 0.0000 0.0000 (114271 PWs)   bands (ev):

   -19.9881 -10.4665  -8.0409  -8.0409

          k = 0.0835 0.0000 0.0000 (114347 PWs)   bands (ev):

   -19.9740 -10.6345  -7.9905  -7.9905

          k = 0.1671 0.0000 0.0000 (114243 PWs)   bands (ev):

   -19.9348 -11.0316  -7.8451  -7.8451

          k = 0.2506 0.0000 0.0000 (114179 PWs)   bands (ev):

   -19.8797 -11.4820  -7.6246  -7.6246

          k = 0.3342 0.0000 0.0000 (113995 PWs)   bands (ev):

   -19.8226 -11.8683  -7.3700  -7.3700

          k = 0.4177 0.0000 0.0000 (113918 PWs)   bands (ev):

   -19.7794 -12.1239  -7.1526  -7.1526

          k =-0.5013 0.0000 0.0000 (113858 PWs)   bands (ev):

   -19.7633 -12.2129  -7.0640  -7.0640

     highest occupied level (ev):    -7.0640

!    total energy              =     -25.88722330 Ry
     estimated scf accuracy    <          3.1E-09 Ry

     The total energy is the sum of the following terms:
     one-electron contribution =     -78.39038024 Ry
     hartree contribution      =      40.15050473 Ry
     xc contribution           =      -7.40256126 Ry
     ewald contribution        =      19.75521347 Ry

     convergence has been achieved in  31 iterations

     negative rho (up, down):  1.145E-03 0.000E+00

     Forces acting on atoms (cartesian axes, Ry/au):

     atom    1 type  1   force =     0.07507624    0.00000000    0.00000000
     atom    2 type  2   force =    -0.07507624    0.00000000    0.00000000

     Total force =     0.106174     Total SCF correction =     0.000023


     Computing stress (Cartesian axis) and pressure


     negative rho (up, down):  1.145E-03 0.000E+00
          total   stress  (Ry/bohr**3)                   (kbar)     P=       -7.96
  -0.00016237   0.00000000   0.00000000          -23.89        0.00        0.00
   0.00000000  -0.00000001   0.00000000            0.00        0.00        0.00
   0.00000000   0.00000000  -0.00000001            0.00        0.00        0.00

     Energy error            =      3.0E-03
     Gradient error          =      7.5E-02
     Cell gradient error     =      1.6E-04


     number of scf cycles    =   2
     number of bfgs steps    =   1

     enthalpy old            =     -25.8842098641 Ry
     enthalpy new            =     -25.8872232961 Ry

     CASE: enthalpy_new < enthalpy_old

     new trust radius        =       0.0659318505 bohr
     new conv_thr            =       0.0000000030 Ry

     new unit-cell volume =   9391.47896 a.u.^3 (  1391.67360 Ang^3 )
     density =      0.02961 g/cm^3

CELL_PARAMETERS (alat=  6.61404144)
   0.994054906   0.000000000   0.000000000
   0.000000000   5.714279004   0.000000000
   0.000000000   0.000000000   5.714279004

ATOMIC_POSITIONS (angstrom)
B            -0.2882976556        0.0000000000        0.0000000000    1   0   0
N             1.0455918663        0.0000000000        0.0000000000    1   0   0



     Writing output data file ./Chain2atoms.save/
     NEW-OLD atomic charge density approx. for the potential

     negative rho (up, down):  1.120E-03 0.000E+00
     extrapolated charge    7.97274, renormalised to    8.00000

     total cpu time spent up to now is     1108.9 secs

     Self-consistent Calculation

     iteration #  1     ecut=    80.00 Ry     beta= 0.30
     Davidson diagonalization with overlap
     ethr =  1.00E-06,  avg # of iterations =  8.6

     negative rho (up, down):  7.240E-04 0.000E+00

     total cpu time spent up to now is     1129.3 secs

     total energy              =     -25.89432655 Ry
     estimated scf accuracy    <       0.00286941 Ry

     iteration #  2     ecut=    80.00 Ry     beta= 0.30
     Davidson diagonalization with overlap
     ethr =  3.59E-05,  avg # of iterations =  2.0

     negative rho (up, down):  5.786E-04 0.000E+00

     total cpu time spent up to now is     1143.1 secs

     total energy              =     -25.89476672 Ry
     estimated scf accuracy    <       0.00052950 Ry

     iteration #  3     ecut=    80.00 Ry     beta= 0.30
     Davidson diagonalization with overlap
     ethr =  6.62E-06,  avg # of iterations =  3.1

     negative rho (up, down):  5.799E-04 0.000E+00

     total cpu time spent up to now is     1156.0 secs

     total energy              =     -25.89494589 Ry
     estimated scf accuracy    <       0.00032670 Ry

     iteration #  4     ecut=    80.00 Ry     beta= 0.30
     Davidson diagonalization with overlap
     ethr =  4.08E-06,  avg # of iterations =  1.3

     negative rho (up, down):  5.649E-04 0.000E+00

     total cpu time spent up to now is     1169.5 secs

     total energy              =     -25.89497199 Ry
     estimated scf accuracy    <       0.00035083 Ry

     iteration #  5     ecut=    80.00 Ry     beta= 0.30
     Davidson diagonalization with overlap
     ethr =  4.08E-06,  avg # of iterations =  1.0

     negative rho (up, down):  6.264E-04 0.000E+00

     total cpu time spent up to now is     1194.1 secs

     total energy              =     -25.89475625 Ry
     estimated scf accuracy    <       0.00046151 Ry

     iteration #  6     ecut=    80.00 Ry     beta= 0.30
     Davidson diagonalization with overlap
     ethr =  4.08E-06,  avg # of iterations =  2.0

     negative rho (up, down):  6.992E-04 0.000E+00

     total cpu time spent up to now is     1235.9 secs

     total energy              =     -25.89484511 Ry
     estimated scf accuracy    <       0.00012212 Ry

     iteration #  7     ecut=    80.00 Ry     beta= 0.30
     Davidson diagonalization with overlap
     ethr =  1.53E-06,  avg # of iterations =  5.6

     negative rho (up, down):  6.582E-04 0.000E+00

     total cpu time spent up to now is     1261.5 secs

     total energy              =     -25.89490606 Ry
     estimated scf accuracy    <       0.00073918 Ry

     iteration #  8     ecut=    80.00 Ry     beta= 0.30
     Davidson diagonalization with overlap
     ethr =  1.53E-06,  avg # of iterations =  1.0

     negative rho (up, down):  6.929E-04 0.000E+00

     total cpu time spent up to now is     1283.3 secs

     total energy              =     -25.89496320 Ry
     estimated scf accuracy    <       0.00049716 Ry

     iteration #  9     ecut=    80.00 Ry     beta= 0.30
     Davidson diagonalization with overlap
     ethr =  1.53E-06,  avg # of iterations =  1.0

     negative rho (up, down):  7.009E-04 0.000E+00

     total cpu time spent up to now is     1304.1 secs

     total energy              =     -25.89498230 Ry
     estimated scf accuracy    <       0.00066634 Ry

     iteration # 10     ecut=    80.00 Ry     beta= 0.30
     Davidson diagonalization with overlap
     ethr =  1.53E-06,  avg # of iterations =  1.0

     negative rho (up, down):  6.032E-04 0.000E+00

     total cpu time spent up to now is     1327.7 secs

     total energy              =     -25.89486396 Ry
     estimated scf accuracy    <       0.00072898 Ry

     iteration # 11     ecut=    80.00 Ry     beta= 0.30
     Davidson diagonalization with overlap
     ethr =  1.53E-06,  avg # of iterations =  1.0

     negative rho (up, down):  8.533E-04 0.000E+00

     total cpu time spent up to now is     1347.9 secs

     total energy              =     -25.89485723 Ry
     estimated scf accuracy    <       0.00039507 Ry

     iteration # 12     ecut=    80.00 Ry     beta= 0.30
     Davidson diagonalization with overlap
     ethr =  1.53E-06,  avg # of iterations =  2.0

     negative rho (up, down):  6.796E-04 0.000E+00

     total cpu time spent up to now is     1369.1 secs

     total energy              =     -25.89472228 Ry
     estimated scf accuracy    <       0.00036577 Ry

     iteration # 13     ecut=    80.00 Ry     beta= 0.30
     Davidson diagonalization with overlap
     ethr =  1.53E-06,  avg # of iterations =  5.4

     negative rho (up, down):  7.014E-04 0.000E+00

     total cpu time spent up to now is     1386.4 secs

     total energy              =     -25.89499407 Ry
     estimated scf accuracy    <       0.00031184 Ry

     iteration # 14     ecut=    80.00 Ry     beta= 0.30
     Davidson diagonalization with overlap
     ethr =  1.53E-06,  avg # of iterations =  3.3

     negative rho (up, down):  6.836E-04 0.000E+00

     total cpu time spent up to now is     1408.4 secs

     total energy              =     -25.89498814 Ry
     estimated scf accuracy    <       0.00094277 Ry

     iteration # 15     ecut=    80.00 Ry     beta= 0.30
     Davidson diagonalization with overlap
     ethr =  1.53E-06,  avg # of iterations =  1.0

     negative rho (up, down):  8.198E-04 0.000E+00

     total cpu time spent up to now is     1422.7 secs

     total energy              =     -25.89461660 Ry
     estimated scf accuracy    <       0.00086395 Ry

     iteration # 16     ecut=    80.00 Ry     beta= 0.30
     Davidson diagonalization with overlap
     ethr =  1.53E-06,  avg # of iterations =  6.4

     negative rho (up, down):  9.135E-04 0.000E+00

     total cpu time spent up to now is     1439.7 secs

     total energy              =     -25.89493273 Ry
     estimated scf accuracy    <       0.00014078 Ry

     iteration # 17     ecut=    80.00 Ry     beta= 0.30
     Davidson diagonalization with overlap
     ethr =  1.53E-06,  avg # of iterations =  3.0

     negative rho (up, down):  7.908E-04 0.000E+00

     total cpu time spent up to now is     1461.1 secs

     total energy              =     -25.89477993 Ry
     estimated scf accuracy    <       0.00055471 Ry

     iteration # 18     ecut=    80.00 Ry     beta= 0.30
     Davidson diagonalization with overlap
     ethr =  1.53E-06,  avg # of iterations =  2.7

     negative rho (up, down):  8.003E-04 0.000E+00

     total cpu time spent up to now is     1475.4 secs

     total energy              =     -25.89483034 Ry
     estimated scf accuracy    <       0.00005689 Ry

     iteration # 19     ecut=    80.00 Ry     beta= 0.30
     Davidson diagonalization with overlap
     ethr =  7.11E-07,  avg # of iterations =  1.0

     negative rho (up, down):  9.270E-04 0.000E+00

     total cpu time spent up to now is     1499.2 secs

     total energy              =     -25.89482897 Ry
     estimated scf accuracy    <       0.00005353 Ry

     iteration # 20     ecut=    80.00 Ry     beta= 0.30
     Davidson diagonalization with overlap
     ethr =  6.69E-07,  avg # of iterations =  1.0

     negative rho (up, down):  9.767E-04 0.000E+00

     total cpu time spent up to now is     1521.5 secs

     total energy              =     -25.89483785 Ry
     estimated scf accuracy    <       0.00003295 Ry

     iteration # 21     ecut=    80.00 Ry     beta= 0.30
     Davidson diagonalization with overlap
     ethr =  4.12E-07,  avg # of iterations =  1.0

     negative rho (up, down):  1.014E-03 0.000E+00

     total cpu time spent up to now is     1533.8 secs

     total energy              =     -25.89485935 Ry
     estimated scf accuracy    <       0.00004229 Ry

     iteration # 22     ecut=    80.00 Ry     beta= 0.30
     Davidson diagonalization with overlap
     ethr =  4.12E-07,  avg # of iterations =  2.0

     negative rho (up, down):  1.051E-03 0.000E+00

     total cpu time spent up to now is     1551.4 secs

     total energy              =     -25.89484800 Ry
     estimated scf accuracy    <       0.00012146 Ry

     iteration # 23     ecut=    80.00 Ry     beta= 0.30
     Davidson diagonalization with overlap
     ethr =  4.12E-07,  avg # of iterations =  1.0

     negative rho (up, down):  1.055E-03 0.000E+00

     total cpu time spent up to now is     1567.1 secs

     total energy              =     -25.89484726 Ry
     estimated scf accuracy    <       0.00008950 Ry

     iteration # 24     ecut=    80.00 Ry     beta= 0.30
     Davidson diagonalization with overlap
     ethr =  4.12E-07,  avg # of iterations =  1.0

     negative rho (up, down):  1.079E-03 0.000E+00

     total cpu time spent up to now is     1583.6 secs

     total energy              =     -25.89482725 Ry
     estimated scf accuracy    <       0.00008247 Ry

     iteration # 25     ecut=    80.00 Ry     beta= 0.30
     Davidson diagonalization with overlap
     ethr =  4.12E-07,  avg # of iterations =  2.0

     negative rho (up, down):  1.032E-03 0.000E+00

     total cpu time spent up to now is     1604.1 secs

     total energy              =     -25.89482951 Ry
     estimated scf accuracy    <       0.00001659 Ry

     iteration # 26     ecut=    80.00 Ry     beta= 0.30
     Davidson diagonalization with overlap
     ethr =  2.07E-07,  avg # of iterations =  3.1

     negative rho (up, down):  1.035E-03 0.000E+00

     total cpu time spent up to now is     1625.9 secs

     total energy              =     -25.89483393 Ry
     estimated scf accuracy    <       0.00000039 Ry

     iteration # 27     ecut=    80.00 Ry     beta= 0.30
     Davidson diagonalization with overlap
     ethr =  4.88E-09,  avg # of iterations =  5.4

     negative rho (up, down):  1.141E-03 0.000E+00

     total cpu time spent up to now is     1641.3 secs

     total energy              =     -25.89483464 Ry
     estimated scf accuracy    <       0.00000036 Ry

     iteration # 28     ecut=    80.00 Ry     beta= 0.30
     Davidson diagonalization with overlap
     ethr =  4.51E-09,  avg # of iterations =  2.1

     negative rho (up, down):  1.175E-03 0.000E+00

     total cpu time spent up to now is     1665.2 secs

     total energy              =     -25.89483503 Ry
     estimated scf accuracy    <       0.00000054 Ry

     iteration # 29     ecut=    80.00 Ry     beta= 0.30
     Davidson diagonalization with overlap
     ethr =  4.51E-09,  avg # of iterations =  7.3

     negative rho (up, down):  1.188E-03 0.000E+00

     total cpu time spent up to now is     1685.0 secs

     total energy              =     -25.89483520 Ry
     estimated scf accuracy    <       0.00000779 Ry

     iteration # 30     ecut=    80.00 Ry     beta= 0.30
     Davidson diagonalization with overlap
     ethr =  4.51E-09,  avg # of iterations =  2.6

     negative rho (up, down):  1.166E-03 0.000E+00

     total cpu time spent up to now is     1707.9 secs

     total energy              =     -25.89483491 Ry
     estimated scf accuracy    <       0.00000462 Ry

     iteration # 31     ecut=    80.00 Ry     beta= 0.30
     Davidson diagonalization with overlap
     ethr =  4.51E-09,  avg # of iterations =  2.4

     negative rho (up, down):  1.181E-03 0.000E+00

     total cpu time spent up to now is     1746.4 secs

     total energy              =     -25.89483486 Ry
     estimated scf accuracy    <       0.00000301 Ry

     iteration # 32     ecut=    80.00 Ry     beta= 0.30
     Davidson diagonalization with overlap
     ethr =  4.51E-09,  avg # of iterations =  1.1

     negative rho (up, down):  1.204E-03 0.000E+00

     total cpu time spent up to now is     1777.4 secs

     total energy              =     -25.89483434 Ry
     estimated scf accuracy    <       0.00000228 Ry

     iteration # 33     ecut=    80.00 Ry     beta= 0.30
     Davidson diagonalization with overlap
     ethr =  4.51E-09,  avg # of iterations =  3.7

     negative rho (up, down):  1.201E-03 0.000E+00

     total cpu time spent up to now is     1800.0 secs

     total energy              =     -25.89483470 Ry
     estimated scf accuracy    <       0.00000012 Ry

     iteration # 34     ecut=    80.00 Ry     beta= 0.30
     Davidson diagonalization with overlap
     ethr =  1.47E-09,  avg # of iterations =  1.1

     negative rho (up, down):  1.222E-03 0.000E+00

     total cpu time spent up to now is     1822.7 secs

     total energy              =     -25.89483465 Ry
     estimated scf accuracy    <       0.00000011 Ry

     iteration # 35     ecut=    80.00 Ry     beta= 0.30
     Davidson diagonalization with overlap
     ethr =  1.41E-09,  avg # of iterations =  3.3

     negative rho (up, down):  1.222E-03 0.000E+00

     total cpu time spent up to now is     1841.2 secs

     total energy              =     -25.89483469 Ry
     estimated scf accuracy    <       0.00000013 Ry

     iteration # 36     ecut=    80.00 Ry     beta= 0.30
     Davidson diagonalization with overlap
     ethr =  1.41E-09,  avg # of iterations =  1.0

     negative rho (up, down):  1.182E-03 0.000E+00

     total cpu time spent up to now is     1871.7 secs

     total energy              =     -25.89483463 Ry
     estimated scf accuracy    <       0.00000008 Ry

     iteration # 37     ecut=    80.00 Ry     beta= 0.30
     Davidson diagonalization with overlap
     ethr =  1.01E-09,  avg # of iterations =  6.4

     negative rho (up, down):  1.181E-03 0.000E+00

     total cpu time spent up to now is     1888.9 secs

     total energy              =     -25.89483468 Ry
     estimated scf accuracy    <       0.00000097 Ry

     iteration # 38     ecut=    80.00 Ry     beta= 0.30
     Davidson diagonalization with overlap
     ethr =  1.01E-09,  avg # of iterations =  2.7

     negative rho (up, down):  1.180E-03 0.000E+00

     total cpu time spent up to now is     1906.3 secs

     total energy              =     -25.89483470 Ry
     estimated scf accuracy    <       0.00000037 Ry

     iteration # 39     ecut=    80.00 Ry     beta= 0.30
     Davidson diagonalization with overlap
     ethr =  1.01E-09,  avg # of iterations =  1.0

     negative rho (up, down):  1.178E-03 0.000E+00

     total cpu time spent up to now is     1922.3 secs

     total energy              =     -25.89483458 Ry
     estimated scf accuracy    <       0.00000032 Ry

     iteration # 40     ecut=    80.00 Ry     beta= 0.30
     Davidson diagonalization with overlap
     ethr =  1.01E-09,  avg # of iterations =  4.9

     negative rho (up, down):  1.176E-03 0.000E+00

     total cpu time spent up to now is     1940.9 secs

     total energy              =     -25.89483466 Ry
     estimated scf accuracy    <       0.00000004 Ry

     iteration # 41     ecut=    80.00 Ry     beta= 0.30
     Davidson diagonalization with overlap
     ethr =  4.69E-10,  avg # of iterations =  2.6

     negative rho (up, down):  1.179E-03 0.000E+00

     total cpu time spent up to now is     1942.3 secs

     End of self-consistent calculation

          k = 0.0000 0.0000 0.0000 (114271 PWs)   bands (ev):

   -20.0919 -10.4163  -8.0917  -8.0917

          k = 0.0838 0.0000 0.0000 (114347 PWs)   bands (ev):

   -20.0787 -10.5748  -8.0425  -8.0425

          k = 0.1677 0.0000 0.0000 (114243 PWs)   bands (ev):

   -20.0420 -10.9524  -7.9009  -7.9009

          k = 0.2515 0.0000 0.0000 (114179 PWs)   bands (ev):

   -19.9905 -11.3840  -7.6873  -7.6873

          k = 0.3353 0.0000 0.0000 (113995 PWs)   bands (ev):

   -19.9373 -11.7557  -7.4427  -7.4427

          k = 0.4192 0.0000 0.0000 (113918 PWs)   bands (ev):

   -19.8972 -12.0019  -7.2362  -7.2362

          k =-0.5030 0.0000 0.0000 (113858 PWs)   bands (ev):

   -19.8823 -12.0877  -7.1528  -7.1528

     highest occupied level (ev):    -7.1528

!    total energy              =     -25.89483467 Ry
     estimated scf accuracy    <          4.5E-10 Ry

     The total energy is the sum of the following terms:
     one-electron contribution =     -78.90710838 Ry
     hartree contribution      =      40.42116630 Ry
     xc contribution           =      -7.43946834 Ry
     ewald contribution        =      20.03057574 Ry

     convergence has been achieved in  41 iterations

     negative rho (up, down):  1.179E-03 0.000E+00

     Forces acting on atoms (cartesian axes, Ry/au):

     atom    1 type  1   force =     0.03204273    0.00000000    0.00000000
     atom    2 type  2   force =    -0.03204273    0.00000000    0.00000000

     Total force =     0.045315     Total SCF correction =     0.000010


     Computing stress (Cartesian axis) and pressure


     negative rho (up, down):  1.179E-03 0.000E+00
          total   stress  (Ry/bohr**3)                   (kbar)     P=       -7.22
  -0.00014730   0.00000000   0.00000000          -21.67        0.00        0.00
   0.00000000  -0.00000002   0.00000000            0.00        0.00        0.00
   0.00000000   0.00000000  -0.00000002            0.00        0.00        0.00

     Energy error            =      7.6E-03
     Gradient error          =      3.2E-02
     Cell gradient error     =      1.5E-04


     number of scf cycles    =   3
     number of bfgs steps    =   2

     enthalpy old            =     -25.8872232961 Ry
     enthalpy new            =     -25.8948346713 Ry

     CASE: enthalpy_new < enthalpy_old

     new trust radius        =       0.0726484711 bohr
     new conv_thr            =       0.0000000032 Ry

     new unit-cell volume =   9356.26711 a.u.^3 (  1386.45574 Ang^3 )
     density =      0.02972 g/cm^3

CELL_PARAMETERS (alat=  6.61404144)
   0.990328931   0.000000000   0.000000000
   0.000000000   5.714275901   0.000000000
   0.000000000   0.000000000   5.714275901

ATOMIC_POSITIONS (angstrom)
B            -0.2830742795        0.0000000000        0.0000000000    1   0   0
N             1.0375299559        0.0000000000        0.0000000000    1   0   0



     Writing output data file ./Chain2atoms.save/
     NEW-OLD atomic charge density approx. for the potential

     negative rho (up, down):  1.162E-03 0.000E+00
     extrapolated charge    7.96989, renormalised to    8.00000

     total cpu time spent up to now is     1955.9 secs

     Self-consistent Calculation

     iteration #  1     ecut=    80.00 Ry     beta= 0.30
     Davidson diagonalization with overlap
     ethr =  1.00E-06,  avg # of iterations =  7.1

     negative rho (up, down):  8.295E-04 0.000E+00

     total cpu time spent up to now is     1965.5 secs

     total energy              =     -25.89957140 Ry
     estimated scf accuracy    <       0.00175762 Ry

     iteration #  2     ecut=    80.00 Ry     beta= 0.30
     Davidson diagonalization with overlap
     ethr =  2.20E-05,  avg # of iterations =  3.0

     negative rho (up, down):  7.937E-04 0.000E+00

     total cpu time spent up to now is     1976.2 secs

     total energy              =     -25.90018708 Ry
     estimated scf accuracy    <       0.00006699 Ry

     iteration #  3     ecut=    80.00 Ry     beta= 0.30
     Davidson diagonalization with overlap
     ethr =  8.37E-07,  avg # of iterations =  7.0

     negative rho (up, down):  7.801E-04 0.000E+00

     total cpu time spent up to now is     1989.5 secs

     total energy              =     -25.90031778 Ry
     estimated scf accuracy    <       0.00029919 Ry

     iteration #  4     ecut=    80.00 Ry     beta= 0.30
     Davidson diagonalization with overlap
     ethr =  8.37E-07,  avg # of iterations =  1.9

     negative rho (up, down):  8.874E-04 0.000E+00

     total cpu time spent up to now is     2005.7 secs

     total energy              =     -25.90010884 Ry
     estimated scf accuracy    <       0.00042119 Ry

     iteration #  5     ecut=    80.00 Ry     beta= 0.30
     Davidson diagonalization with overlap
     ethr =  8.37E-07,  avg # of iterations =  5.6

     negative rho (up, down):  8.553E-04 0.000E+00

     total cpu time spent up to now is     2021.8 secs

     total energy              =     -25.90022694 Ry
     estimated scf accuracy    <       0.00008090 Ry

     iteration #  6     ecut=    80.00 Ry     beta= 0.30
     Davidson diagonalization with overlap
     ethr =  8.37E-07,  avg # of iterations =  1.0

     negative rho (up, down):  8.380E-04 0.000E+00

     total cpu time spent up to now is     2038.3 secs

     total energy              =     -25.90022173 Ry
     estimated scf accuracy    <       0.00005282 Ry

     iteration #  7     ecut=    80.00 Ry     beta= 0.30
     Davidson diagonalization with overlap
     ethr =  6.60E-07,  avg # of iterations =  1.0

     negative rho (up, down):  8.370E-04 0.000E+00

     total cpu time spent up to now is     2048.7 secs

     total energy              =     -25.90022139 Ry
     estimated scf accuracy    <       0.00003179 Ry

     iteration #  8     ecut=    80.00 Ry     beta= 0.30
     Davidson diagonalization with overlap
     ethr =  3.97E-07,  avg # of iterations =  1.0

     negative rho (up, down):  8.412E-04 0.000E+00

     total cpu time spent up to now is     2064.1 secs

     total energy              =     -25.90021381 Ry
     estimated scf accuracy    <       0.00002630 Ry

     iteration #  9     ecut=    80.00 Ry     beta= 0.30
     Davidson diagonalization with overlap
     ethr =  3.29E-07,  avg # of iterations =  2.3

     negative rho (up, down):  9.433E-04 0.000E+00

     total cpu time spent up to now is     2078.4 secs

     total energy              =     -25.90021898 Ry
     estimated scf accuracy    <       0.00000168 Ry

     iteration # 10     ecut=    80.00 Ry     beta= 0.30
     Davidson diagonalization with overlap
     ethr =  2.10E-08,  avg # of iterations =  5.3

     negative rho (up, down):  9.956E-04 0.000E+00

     total cpu time spent up to now is     2096.8 secs

     total energy              =     -25.90022116 Ry
     estimated scf accuracy    <       0.00000112 Ry

     iteration # 11     ecut=    80.00 Ry     beta= 0.30
     Davidson diagonalization with overlap
     ethr =  1.40E-08,  avg # of iterations =  4.7

     negative rho (up, down):  1.060E-03 0.000E+00

     total cpu time spent up to now is     2124.8 secs

     total energy              =     -25.90022050 Ry
     estimated scf accuracy    <       0.00000669 Ry

     iteration # 12     ecut=    80.00 Ry     beta= 0.30
     Davidson diagonalization with overlap
     ethr =  1.40E-08,  avg # of iterations =  2.6

     negative rho (up, down):  1.126E-03 0.000E+00

     total cpu time spent up to now is     2144.8 secs

     total energy              =     -25.90021961 Ry
     estimated scf accuracy    <       0.00000253 Ry

     iteration # 13     ecut=    80.00 Ry     beta= 0.30
     Davidson diagonalization with overlap
     ethr =  1.40E-08,  avg # of iterations =  3.3

     negative rho (up, down):  1.127E-03 0.000E+00

     total cpu time spent up to now is     2169.2 secs

     total energy              =     -25.90022037 Ry
     estimated scf accuracy    <       0.00000078 Ry

     iteration # 14     ecut=    80.00 Ry     beta= 0.30
     Davidson diagonalization with overlap
     ethr =  9.72E-09,  avg # of iterations =  1.4

     negative rho (up, down):  1.129E-03 0.000E+00

     total cpu time spent up to now is     2194.2 secs

     total energy              =     -25.90022043 Ry
     estimated scf accuracy    <       0.00000014 Ry

     iteration # 15     ecut=    80.00 Ry     beta= 0.30
     Davidson diagonalization with overlap
     ethr =  1.70E-09,  avg # of iterations =  4.1

     negative rho (up, down):  1.145E-03 0.000E+00

     total cpu time spent up to now is     2206.9 secs

     total energy              =     -25.90022051 Ry
     estimated scf accuracy    <       0.00000001 Ry

     iteration # 16     ecut=    80.00 Ry     beta= 0.30
     Davidson diagonalization with overlap
     ethr =  1.62E-10,  avg # of iterations =  4.3

     negative rho (up, down):  1.153E-03 0.000E+00

     total cpu time spent up to now is     2226.2 secs

     total energy              =     -25.90022055 Ry
     estimated scf accuracy    <       0.00000004 Ry

     iteration # 17     ecut=    80.00 Ry     beta= 0.30
     Davidson diagonalization with overlap
     ethr =  1.62E-10,  avg # of iterations =  4.1

     negative rho (up, down):  1.167E-03 0.000E+00

     total cpu time spent up to now is     2250.9 secs

     total energy              =     -25.90022053 Ry
     estimated scf accuracy    <       0.00000017 Ry

     iteration # 18     ecut=    80.00 Ry     beta= 0.30
     Davidson diagonalization with overlap
     ethr =  1.62E-10,  avg # of iterations =  3.7

     negative rho (up, down):  1.166E-03 0.000E+00

     total cpu time spent up to now is     2267.1 secs

     total energy              =     -25.90022053 Ry
     estimated scf accuracy    <       0.00000004 Ry

     iteration # 19     ecut=    80.00 Ry     beta= 0.30
     Davidson diagonalization with overlap
     ethr =  1.62E-10,  avg # of iterations =  2.1

     negative rho (up, down):  1.168E-03 0.000E+00

     total cpu time spent up to now is     2281.6 secs

     total energy              =     -25.90022053 Ry
     estimated scf accuracy    <       0.00000002 Ry

     iteration # 20     ecut=    80.00 Ry     beta= 0.30
     Davidson diagonalization with overlap
     ethr =  1.62E-10,  avg # of iterations =  3.0

     negative rho (up, down):  1.170E-03 0.000E+00

     total cpu time spent up to now is     2283.1 secs

     End of self-consistent calculation

          k = 0.0000 0.0000 0.0000 (114271 PWs)   bands (ev):

   -20.1415 -10.4126  -8.1217  -8.1217

          k = 0.0841 0.0000 0.0000 (114347 PWs)   bands (ev):

   -20.1285 -10.5665  -8.0725  -8.0725

          k = 0.1683 0.0000 0.0000 (114243 PWs)   bands (ev):

   -20.0923 -10.9352  -7.9310  -7.9310

          k = 0.2524 0.0000 0.0000 (114179 PWs)   bands (ev):

   -20.0417 -11.3589  -7.7178  -7.7178

          k = 0.3366 0.0000 0.0000 (113995 PWs)   bands (ev):

   -19.9894 -11.7249  -7.4743  -7.4743

          k = 0.4207 0.0000 0.0000 (113918 PWs)   bands (ev):

   -19.9500 -11.9679  -7.2693  -7.2693

          k =-0.5049 0.0000 0.0000 (113858 PWs)   bands (ev):

   -19.9354 -12.0526  -7.1867  -7.1867

     highest occupied level (ev):    -7.1867

!    total energy              =     -25.90022053 Ry
     estimated scf accuracy    <          1.7E-09 Ry

     The total energy is the sum of the following terms:
     one-electron contribution =     -79.28518796 Ry
     hartree contribution      =      40.61549562 Ry
     xc contribution           =      -7.45826665 Ry
     ewald contribution        =      20.22773845 Ry

     convergence has been achieved in  20 iterations

     negative rho (up, down):  1.170E-03 0.000E+00

     Forces acting on atoms (cartesian axes, Ry/au):

     atom    1 type  1   force =     0.00782075    0.00000000    0.00000000
     atom    2 type  2   force =    -0.00782075    0.00000000    0.00000000

     Total force =     0.011060     Total SCF correction =     0.000030


     Computing stress (Cartesian axis) and pressure


     negative rho (up, down):  1.170E-03 0.000E+00
          total   stress  (Ry/bohr**3)                   (kbar)     P=       -6.90
  -0.00014068   0.00000000   0.00000000          -20.69        0.00        0.00
   0.00000000  -0.00000002   0.00000000            0.00        0.00        0.00
   0.00000000   0.00000000  -0.00000002            0.00        0.00        0.00

     Energy error            =      5.4E-03
     Gradient error          =      7.8E-03
     Cell gradient error     =      1.4E-04


     number of scf cycles    =   4
     number of bfgs steps    =   3

     enthalpy old            =     -25.8948346713 Ry
     enthalpy new            =     -25.9002205329 Ry

     CASE: enthalpy_new < enthalpy_old

     new trust radius        =       0.1091774522 bohr
     new conv_thr            =       0.0000000008 Ry

     new unit-cell volume =   9303.45205 a.u.^3 (  1378.62936 Ang^3 )
     density =      0.02989 g/cm^3

CELL_PARAMETERS (alat=  6.61404144)
   0.984739970   0.000000000   0.000000000
   0.000000000   5.714272037   0.000000000
   0.000000000   0.000000000   5.714272037

ATOMIC_POSITIONS (angstrom)
B            -0.2799217708        0.0000000000        0.0000000000    1   0   0
N             1.0301196460        0.0000000000        0.0000000000    1   0   0



     Writing output data file ./Chain2atoms.save/
     NEW-OLD atomic charge density approx. for the potential

     negative rho (up, down):  1.146E-03 0.000E+00
     extrapolated charge    7.95459, renormalised to    8.00000

     total cpu time spent up to now is     2296.6 secs

     Self-consistent Calculation

     iteration #  1     ecut=    80.00 Ry     beta= 0.30
     Davidson diagonalization with overlap
     ethr =  1.00E-06,  avg # of iterations =  9.0

     negative rho (up, down):  7.197E-04 0.000E+00

     total cpu time spent up to now is     2314.3 secs

     total energy              =     -25.90604408 Ry
     estimated scf accuracy    <       0.00319041 Ry

     iteration #  2     ecut=    80.00 Ry     beta= 0.30
     Davidson diagonalization with overlap
     ethr =  3.99E-05,  avg # of iterations =  3.0

     negative rho (up, down):  7.268E-04 0.000E+00

     total cpu time spent up to now is     2324.5 secs

     total energy              =     -25.90746105 Ry
     estimated scf accuracy    <       0.00008829 Ry

     iteration #  3     ecut=    80.00 Ry     beta= 0.30
     Davidson diagonalization with overlap
     ethr =  1.10E-06,  avg # of iterations =  7.4

     negative rho (up, down):  7.139E-04 0.000E+00

     total cpu time spent up to now is     2339.2 secs

     total energy              =     -25.90766012 Ry
     estimated scf accuracy    <       0.00062351 Ry

     iteration #  4     ecut=    80.00 Ry     beta= 0.30
     Davidson diagonalization with overlap
     ethr =  1.10E-06,  avg # of iterations =  1.3

     negative rho (up, down):  8.168E-04 0.000E+00

     total cpu time spent up to now is     2360.8 secs

     total energy              =     -25.90744091 Ry
     estimated scf accuracy    <       0.00078743 Ry

     iteration #  5     ecut=    80.00 Ry     beta= 0.30
     Davidson diagonalization with overlap
     ethr =  1.10E-06,  avg # of iterations =  4.9

     negative rho (up, down):  8.680E-04 0.000E+00

     total cpu time spent up to now is     2392.8 secs

     total energy              =     -25.90746875 Ry
     estimated scf accuracy    <       0.00008832 Ry

     iteration #  6     ecut=    80.00 Ry     beta= 0.30
     Davidson diagonalization with overlap
     ethr =  1.10E-06,  avg # of iterations =  3.1

     negative rho (up, down):  8.685E-04 0.000E+00

     total cpu time spent up to now is     2433.5 secs

     total energy              =     -25.90750271 Ry
     estimated scf accuracy    <       0.00000421 Ry

     iteration #  7     ecut=    80.00 Ry     beta= 0.30
     Davidson diagonalization with overlap
     ethr =  5.26E-08,  avg # of iterations =  6.7

     negative rho (up, down):  8.515E-04 0.000E+00

     total cpu time spent up to now is     2450.5 secs

     total energy              =     -25.90750208 Ry
     estimated scf accuracy    <       0.00003595 Ry

     iteration #  8     ecut=    80.00 Ry     beta= 0.30
     Davidson diagonalization with overlap
     ethr =  5.26E-08,  avg # of iterations =  2.7

     negative rho (up, down):  8.552E-04 0.000E+00

     total cpu time spent up to now is     2467.1 secs

     total energy              =     -25.90750102 Ry
     estimated scf accuracy    <       0.00001242 Ry

     iteration #  9     ecut=    80.00 Ry     beta= 0.30
     Davidson diagonalization with overlap
     ethr =  5.26E-08,  avg # of iterations =  2.7

     negative rho (up, down):  8.998E-04 0.000E+00

     total cpu time spent up to now is     2490.1 secs

     total energy              =     -25.90750347 Ry
     estimated scf accuracy    <       0.00000299 Ry

     iteration # 10     ecut=    80.00 Ry     beta= 0.30
     Davidson diagonalization with overlap
     ethr =  3.73E-08,  avg # of iterations =  1.0

     negative rho (up, down):  9.820E-04 0.000E+00

     total cpu time spent up to now is     2501.7 secs

     total energy              =     -25.90750166 Ry
     estimated scf accuracy    <       0.00000544 Ry

     iteration # 11     ecut=    80.00 Ry     beta= 0.30
     Davidson diagonalization with overlap
     ethr =  3.73E-08,  avg # of iterations =  2.0

     negative rho (up, down):  1.039E-03 0.000E+00

     total cpu time spent up to now is     2516.0 secs

     total energy              =     -25.90750176 Ry
     estimated scf accuracy    <       0.00000074 Ry

     iteration # 12     ecut=    80.00 Ry     beta= 0.30
     Davidson diagonalization with overlap
     ethr =  9.31E-09,  avg # of iterations =  5.7

     negative rho (up, down):  1.093E-03 0.000E+00

     total cpu time spent up to now is     2532.1 secs

     total energy              =     -25.90750236 Ry
     estimated scf accuracy    <       0.00000263 Ry

     iteration # 13     ecut=    80.00 Ry     beta= 0.30
     Davidson diagonalization with overlap
     ethr =  9.31E-09,  avg # of iterations =  1.6

     negative rho (up, down):  1.102E-03 0.000E+00

     total cpu time spent up to now is     2545.4 secs

     total energy              =     -25.90750203 Ry
     estimated scf accuracy    <       0.00000120 Ry

     iteration # 14     ecut=    80.00 Ry     beta= 0.30
     Davidson diagonalization with overlap
     ethr =  9.31E-09,  avg # of iterations =  2.9

     negative rho (up, down):  1.106E-03 0.000E+00

     total cpu time spent up to now is     2557.8 secs

     total energy              =     -25.90750238 Ry
     estimated scf accuracy    <       0.00000006 Ry

     iteration # 15     ecut=    80.00 Ry     beta= 0.30
     Davidson diagonalization with overlap
     ethr =  7.32E-10,  avg # of iterations =  2.7

     negative rho (up, down):  1.122E-03 0.000E+00

     total cpu time spent up to now is     2572.6 secs

     total energy              =     -25.90750244 Ry
     estimated scf accuracy    <       0.00000003 Ry

     iteration # 16     ecut=    80.00 Ry     beta= 0.30
     Davidson diagonalization with overlap
     ethr =  4.30E-10,  avg # of iterations =  3.0

     negative rho (up, down):  1.125E-03 0.000E+00

     total cpu time spent up to now is     2584.3 secs

     total energy              =     -25.90750239 Ry
     estimated scf accuracy    <       0.00000017 Ry

     iteration # 17     ecut=    80.00 Ry     beta= 0.30
     Davidson diagonalization with overlap
     ethr =  4.30E-10,  avg # of iterations =  5.1

     negative rho (up, down):  1.131E-03 0.000E+00

     total cpu time spent up to now is     2586.2 secs

     End of self-consistent calculation

          k = 0.0000 0.0000 0.0000 (114271 PWs)   bands (ev):

   -20.1852 -10.4330  -8.1539  -8.1539

          k = 0.0846 0.0000 0.0000 (114347 PWs)   bands (ev):

   -20.1722 -10.5829  -8.1040  -8.1040

          k = 0.1692 0.0000 0.0000 (114243 PWs)   bands (ev):

   -20.1359 -10.9441  -7.9608  -7.9608

          k = 0.2539 0.0000 0.0000 (114179 PWs)   bands (ev):

   -20.0850 -11.3620  -7.7449  -7.7449

          k = 0.3385 0.0000 0.0000 (113995 PWs)   bands (ev):

   -20.0325 -11.7246  -7.4983  -7.4983

          k = 0.4231 0.0000 0.0000 (113918 PWs)   bands (ev):

   -19.9930 -11.9658  -7.2907  -7.2907

          k =-0.5077 0.0000 0.0000 (113858 PWs)   bands (ev):

   -19.9783 -12.0501  -7.2071  -7.2071

     highest occupied level (ev):    -7.2071

!    total energy              =     -25.90750242 Ry
     estimated scf accuracy    <          6.2E-10 Ry

     The total energy is the sum of the following terms:
     one-electron contribution =     -79.76130123 Ry
     hartree contribution      =      40.85696172 Ry
     xc contribution           =      -7.47561616 Ry
     ewald contribution        =      20.47245325 Ry

     convergence has been achieved in  17 iterations

     negative rho (up, down):  1.131E-03 0.000E+00

     Forces acting on atoms (cartesian axes, Ry/au):

     atom    1 type  1   force =    -0.01498422    0.00000000    0.00000000
     atom    2 type  2   force =     0.01498422    0.00000000    0.00000000

     Total force =     0.021191     Total SCF correction =     0.000016


     Computing stress (Cartesian axis) and pressure


     negative rho (up, down):  1.131E-03 0.000E+00
          total   stress  (Ry/bohr**3)                   (kbar)     P=       -6.66
  -0.00013584   0.00000000   0.00000000          -19.98        0.00        0.00
   0.00000000  -0.00000003   0.00000000            0.00        0.00        0.00
   0.00000000   0.00000000  -0.00000003            0.00        0.00        0.00

     Energy error            =      7.3E-03
     Gradient error          =      1.5E-02
     Cell gradient error     =      1.4E-04


     number of scf cycles    =   5
     number of bfgs steps    =   4

     enthalpy old            =     -25.9002205329 Ry
     enthalpy new            =     -25.9075024212 Ry

     CASE: enthalpy_new < enthalpy_old

     new trust radius        =       0.1642301430 bohr
     new conv_thr            =       0.0000000015 Ry

     new unit-cell volume =   9224.22250 a.u.^3 (  1366.88875 Ang^3 )
     density =      0.03015 g/cm^3

CELL_PARAMETERS (alat=  6.61404144)
   0.976356527   0.000000000   0.000000000
   0.000000000   5.714263999   0.000000000
   0.000000000   0.000000000   5.714263999

ATOMIC_POSITIONS (angstrom)
B            -0.2779305660        0.0000000000        0.0000000000    1   0   0
N             1.0217417393        0.0000000000        0.0000000000    1   0   0



     Writing output data file ./Chain2atoms.save/
     NEW-OLD atomic charge density approx. for the potential

     negative rho (up, down):  1.097E-03 0.000E+00
     extrapolated charge    7.93129, renormalised to    8.00000

     total cpu time spent up to now is     2599.7 secs

     Self-consistent Calculation

     iteration #  1     ecut=    80.00 Ry     beta= 0.30
     Davidson diagonalization with overlap
     ethr =  1.00E-06,  avg # of iterations = 10.9

     negative rho (up, down):  5.364E-04 0.000E+00

     total cpu time spent up to now is     2616.1 secs

     total energy              =     -25.91485093 Ry
     estimated scf accuracy    <       0.00668405 Ry

     iteration #  2     ecut=    80.00 Ry     beta= 0.30
     Davidson diagonalization with overlap
     ethr =  8.36E-05,  avg # of iterations =  3.0

     negative rho (up, down):  5.747E-04 0.000E+00

     total cpu time spent up to now is     2625.6 secs

     total energy              =     -25.91806950 Ry
     estimated scf accuracy    <       0.00030022 Ry

     iteration #  3     ecut=    80.00 Ry     beta= 0.30
     Davidson diagonalization with overlap
     ethr =  3.75E-06,  avg # of iterations =  5.3

     negative rho (up, down):  5.702E-04 0.000E+00

     total cpu time spent up to now is     2693.7 secs

     total energy              =     -25.91840282 Ry
     estimated scf accuracy    <       0.00108977 Ry

     iteration #  4     ecut=    80.00 Ry     beta= 0.30
     Davidson diagonalization with overlap
     ethr =  3.75E-06,  avg # of iterations =  1.0

     negative rho (up, down):  6.662E-04 0.000E+00

     total cpu time spent up to now is     2712.8 secs

     total energy              =     -25.91818710 Ry
     estimated scf accuracy    <       0.00120155 Ry

     iteration #  5     ecut=    80.00 Ry     beta= 0.30
     Davidson diagonalization with overlap
     ethr =  3.75E-06,  avg # of iterations =  1.4

     negative rho (up, down):  8.430E-04 0.000E+00

     total cpu time spent up to now is     2742.0 secs

     total energy              =     -25.91796694 Ry
     estimated scf accuracy    <       0.00065905 Ry

     iteration #  6     ecut=    80.00 Ry     beta= 0.30
     Davidson diagonalization with overlap
     ethr =  3.75E-06,  avg # of iterations =  3.0

     negative rho (up, down):  7.939E-04 0.000E+00

     total cpu time spent up to now is     2765.3 secs

     total energy              =     -25.91812572 Ry
     estimated scf accuracy    <       0.00003525 Ry

     iteration #  7     ecut=    80.00 Ry     beta= 0.30
     Davidson diagonalization with overlap
     ethr =  4.41E-07,  avg # of iterations =  2.9

     negative rho (up, down):  7.727E-04 0.000E+00

     total cpu time spent up to now is     2793.9 secs

     total energy              =     -25.91813383 Ry
     estimated scf accuracy    <       0.00001466 Ry

     iteration #  8     ecut=    80.00 Ry     beta= 0.30
     Davidson diagonalization with overlap
     ethr =  1.83E-07,  avg # of iterations =  1.6

     negative rho (up, down):  7.841E-04 0.000E+00

     total cpu time spent up to now is     2825.9 secs

     total energy              =     -25.91813590 Ry
     estimated scf accuracy    <       0.00000644 Ry

[...]

     Energy error            =      6.5E-07
     Gradient error          =      9.1E-06
     Cell gradient error     =      2.8E-08


     bfgs converged in  20 scf cycles and  19 bfgs steps
     (criteria: energy <  1.0E-04 Ry, force <  1.0E-03Ry/Bohr, cell <  5.0E-01kbar)

     End of BFGS Geometry Optimization

     Final enthalpy =     -26.2429016969 Ry

     File ./Chain2atoms.bfgs deleted, as requested
Begin final coordinates
     new unit-cell volume =   7073.48419 a.u.^3 (  1048.18221 Ang^3 )
     density =      0.03932 g/cm^3

CELL_PARAMETERS (alat=  6.61404144)
   0.748783831   0.000000000   0.000000000
   0.000000000   5.713971866   0.000000000
   0.000000000   0.000000000   5.713971866

ATOMIC_POSITIONS (angstrom)
B            -0.3699771002        0.0000000000        0.0000000000    1   0   0
N             0.9404180861        0.0000000000        0.0000000000    1   0   0
End final coordinates



     Writing output data file ./Chain2atoms.save/

     Final scf calculation at the relaxed structure.
     The G-vectors are recalculated for the final unit cell
     Results may differ from those at the preceding step.
 
     Parallelization info
     --------------------
     sticks:   dense  smooth     PW     G-vecs:    dense   smooth      PW
     Min         477     477    136                68345    68345   10514
     Max         478     478    137                68354    68354   10521
     Sum        4771    4771   1369               683481   683481  105187
 


     bravais-lattice index     =            8
     lattice parameter (alat)  =       6.6140  a.u.
     unit-cell volume          =    7073.4842 (a.u.)^3
     number of atoms/cell      =            2
     number of atomic types    =            2
     number of electrons       =         8.00
     number of Kohn-Sham states=            4
     kinetic-energy cutoff     =      80.0000  Ry
     charge density cutoff     =     320.0000  Ry
     scf convergence threshold =      1.0E-10
     mixing beta               =       0.3000
     number of iterations used =            8  local-TF  mixing
     press convergence thresh. =      5.0E-01
     Exchange-correlation=  SLA  PW   PBE  PBE
                           (   1   4   3   4   0   0   0)

     celldm(1)=   6.614041  celldm(2)=   5.714286  celldm(3)=   5.714286
     celldm(4)=   0.000000  celldm(5)=   0.000000  celldm(6)=   0.000000

     crystal axes: (cart. coord. in units of alat)
               a(1) = (   0.748784   0.000000   0.000000 )  
               a(2) = (   0.000000   5.713972   0.000000 )  
               a(3) = (   0.000000   0.000000   5.713972 )  

     reciprocal axes: (cart. coord. in units 2 pi/alat)
               b(1) = (  1.335499  0.000000  0.000000 )  
               b(2) = (  0.000000  0.175010  0.000000 )  
               b(3) = (  0.000000  0.000000  0.175010 )  


     PseudoPot. # 1 for B  read from file:
     ../Pseudo/B.pbe-n-rrkjus_psl.1.0.0.UPF
     MD5 check sum: 63df43e07c319b5f28dc02596645f850
     Pseudo is Ultrasoft + core correction, Zval =  3.0
     Generated using "atomic" code by A. Dal Corso  v.5.1.2
     Using radial grid of 1059 points,  4 beta functions with: 
                l(1) =   0
                l(2) =   0
                l(3) =   1
                l(4) =   1
     Q(r) pseudized with 0 coefficients 


     PseudoPot. # 2 for N  read from file:
     ../Pseudo/N.pbe-rrkjus.UPF
     MD5 check sum: 0c3fbe5807a93f9ba59d5a7019aa238b
     Pseudo is Ultrasoft, Zval =  5.0
     Generated by new atomic code, or converted to UPF format
     Using radial grid of 1257 points,  4 beta functions with: 
                l(1) =   0
                l(2) =   0
                l(3) =   1
                l(4) =   1
     Q(r) pseudized with 0 coefficients 


     atomic species   valence    mass     pseudopotential
        B              3.00    10.81100     B ( 1.00)
        N              5.00    14.00670     N ( 1.00)

      8 Sym. Ops. (no inversion) found



   Cartesian axes

     site n.     atom                  positions (alat units)
         1           B   tau(   1) = (  -0.1057077   0.0000000   0.0000000  )
         2           N   tau(   2) = (   0.2686909   0.0000000   0.0000000  )

     number of k points=     7
                       cart. coord. in units 2pi/alat
        k(    1) = (   0.0000000   0.0000000   0.0000000), wk =   0.1666667
        k(    2) = (   0.1112916   0.0000000   0.0000000), wk =   0.3333333
        k(    3) = (   0.2225832   0.0000000   0.0000000), wk =   0.3333333
        k(    4) = (   0.3338747   0.0000000   0.0000000), wk =   0.3333333
        k(    5) = (   0.4451663   0.0000000   0.0000000), wk =   0.3333333
        k(    6) = (   0.5564579   0.0000000   0.0000000), wk =   0.3333333
        k(    7) = (  -0.6677495   0.0000000   0.0000000), wk =   0.1666667

     Dense  grid:   683481 G-vectors     FFT dimensions: (  30, 216, 216)

     Estimated max dynamical RAM per process >     101.73 MB

     Estimated total dynamical RAM >    1017.32 MB

     Initial potential from superposition of free atoms

     starting charge    7.99971, renormalised to    8.00000

     negative rho (up, down):  3.808E-04 0.000E+00
     Starting wfcs are    8 randomized atomic wfcs

     total cpu time spent up to now is     9183.4 secs

     Self-consistent Calculation

     iteration #  1     ecut=    80.00 Ry     beta= 0.30
     Davidson diagonalization with overlap
     ethr =  1.00E-06,  avg # of iterations = 11.4

     negative rho (up, down):  1.516E-06 0.000E+00

     total cpu time spent up to now is     9204.8 secs

     total energy              =     -26.32813097 Ry
     estimated scf accuracy    <       0.61901937 Ry

     iteration #  2     ecut=    80.00 Ry     beta= 0.30
     Davidson diagonalization with overlap
     ethr =  7.74E-03,  avg # of iterations =  1.0

     negative rho (up, down):  1.784E-04 0.000E+00

     total cpu time spent up to now is     9207.6 secs

     total energy              =     -26.16614252 Ry
     estimated scf accuracy    <       0.34280569 Ry

     iteration #  3     ecut=    80.00 Ry     beta= 0.30
     Davidson diagonalization with overlap
     ethr =  4.29E-03,  avg # of iterations =  2.0

     negative rho (up, down):  7.516E-07 0.000E+00

     total cpu time spent up to now is     9210.9 secs

     total energy              =     -26.25076330 Ry
     estimated scf accuracy    <       0.03593775 Ry

     iteration #  4     ecut=    80.00 Ry     beta= 0.30
     Davidson diagonalization with overlap
     ethr =  4.49E-04,  avg # of iterations =  2.0

     negative rho (up, down):  6.996E-07 0.000E+00

     total cpu time spent up to now is     9214.4 secs

     total energy              =     -26.24949570 Ry
     estimated scf accuracy    <       0.02573802 Ry

     iteration #  5     ecut=    80.00 Ry     beta= 0.30
     Davidson diagonalization with overlap
     ethr =  3.22E-04,  avg # of iterations =  2.0

     negative rho (up, down):  2.662E-07 0.000E+00

     total cpu time spent up to now is     9217.1 secs

     total energy              =     -26.24272207 Ry
     estimated scf accuracy    <       0.02472221 Ry

     iteration #  6     ecut=    80.00 Ry     beta= 0.30
     Davidson diagonalization with overlap
     ethr =  3.09E-04,  avg # of iterations =  1.7

     negative rho (up, down):  1.480E-02 0.000E+00

     total cpu time spent up to now is     9221.0 secs

     total energy              =     -26.24341318 Ry
     estimated scf accuracy    <       0.00668461 Ry

     iteration #  7     ecut=    80.00 Ry     beta= 0.30
     Davidson diagonalization with overlap
     ethr =  8.36E-05,  avg # of iterations =  4.0

     negative rho (up, down):  9.987E-03 0.000E+00

     total cpu time spent up to now is     9224.5 secs

     total energy              =     -26.23334868 Ry
     estimated scf accuracy    <       0.04601538 Ry

     iteration #  8     ecut=    80.00 Ry     beta= 0.30
     Davidson diagonalization with overlap
     ethr =  8.36E-05,  avg # of iterations =  5.7

     negative rho (up, down):  2.397E-02 0.000E+00

     total cpu time spent up to now is     9228.3 secs

     total energy              =     -26.27759865 Ry
     estimated scf accuracy    <       0.00262451 Ry

     iteration #  9     ecut=    80.00 Ry     beta= 0.30
     Davidson diagonalization with overlap
     ethr =  3.28E-05,  avg # of iterations =  8.0

     negative rho (up, down):  3.573E-02 0.000E+00

     total cpu time spent up to now is     9234.9 secs

     total energy              =     -26.23182138 Ry
     estimated scf accuracy    <       0.30004085 Ry

     iteration # 10     ecut=    80.00 Ry     beta= 0.30
     Davidson diagonalization with overlap
     ethr =  3.28E-05,  avg # of iterations =  7.7

     negative rho (up, down):  2.057E-02 0.000E+00

     total cpu time spent up to now is     9240.7 secs

     total energy              =     -26.25121144 Ry
     estimated scf accuracy    <       0.03969737 Ry

     iteration # 11     ecut=    80.00 Ry     beta= 0.30
     Davidson diagonalization with overlap
     ethr =  3.28E-05,  avg # of iterations =  1.4

     negative rho (up, down):  1.626E-02 0.000E+00

     total cpu time spent up to now is     9247.7 secs

     total energy              =     -26.23352882 Ry
     estimated scf accuracy    <       0.03268704 Ry

     iteration # 12     ecut=    80.00 Ry     beta= 0.30
     Davidson diagonalization with overlap
     ethr =  3.28E-05,  avg # of iterations =  6.4

     negative rho (up, down):  6.416E-03 0.000E+00

     total cpu time spent up to now is     9259.0 secs

     total energy              =     -26.24304402 Ry
     estimated scf accuracy    <       0.00338299 Ry

     iteration # 13     ecut=    80.00 Ry     beta= 0.30
     Davidson diagonalization with overlap
     ethr =  3.28E-05,  avg # of iterations =  1.0

     negative rho (up, down):  4.587E-03 0.000E+00

     total cpu time spent up to now is     9266.1 secs

     total energy              =     -26.24217978 Ry
     estimated scf accuracy    <       0.00165607 Ry

     iteration # 14     ecut=    80.00 Ry     beta= 0.30
     Davidson diagonalization with overlap
     ethr =  2.07E-05,  avg # of iterations =  2.3

     negative rho (up, down):  3.717E-03 0.000E+00

     total cpu time spent up to now is     9279.9 secs

     total energy              =     -26.24279730 Ry
     estimated scf accuracy    <       0.00018081 Ry

     iteration # 15     ecut=    80.00 Ry     beta= 0.30
     Davidson diagonalization with overlap
     ethr =  2.26E-06,  avg # of iterations =  2.1

     negative rho (up, down):  3.207E-03 0.000E+00

     total cpu time spent up to now is     9291.9 secs

     total energy              =     -26.24279800 Ry
     estimated scf accuracy    <       0.00006450 Ry

     iteration # 16     ecut=    80.00 Ry     beta= 0.30
     Davidson diagonalization with overlap
     ethr =  8.06E-07,  avg # of iterations =  2.7

     negative rho (up, down):  2.466E-03 0.000E+00

     total cpu time spent up to now is     9303.0 secs

     total energy              =     -26.24281808 Ry
     estimated scf accuracy    <       0.00002973 Ry

     iteration # 17     ecut=    80.00 Ry     beta= 0.30
     Davidson diagonalization with overlap
     ethr =  3.72E-07,  avg # of iterations =  2.4

     negative rho (up, down):  2.178E-03 0.000E+00

     total cpu time spent up to now is     9316.4 secs

     total energy              =     -26.24282887 Ry
     estimated scf accuracy    <       0.00000126 Ry

     iteration # 18     ecut=    80.00 Ry     beta= 0.30
     Davidson diagonalization with overlap
     ethr =  1.57E-08,  avg # of iterations =  4.7

     negative rho (up, down):  2.210E-03 0.000E+00

     total cpu time spent up to now is     9329.8 secs

     total energy              =     -26.24282217 Ry
     estimated scf accuracy    <       0.00002165 Ry

     iteration # 19     ecut=    80.00 Ry     beta= 0.30
     Davidson diagonalization with overlap
     ethr =  1.57E-08,  avg # of iterations =  6.1

     negative rho (up, down):  2.174E-03 0.000E+00

     total cpu time spent up to now is     9342.4 secs

     total energy              =     -26.24282666 Ry
     estimated scf accuracy    <       0.00000012 Ry

     iteration # 20     ecut=    80.00 Ry     beta= 0.30
     Davidson diagonalization with overlap
     ethr =  1.48E-09,  avg # of iterations =  6.3

     negative rho (up, down):  2.073E-03 0.000E+00

     total cpu time spent up to now is     9350.2 secs

     total energy              =     -26.24282563 Ry
     estimated scf accuracy    <       0.00000411 Ry

     iteration # 21     ecut=    80.00 Ry     beta= 0.30
     Davidson diagonalization with overlap
     ethr =  1.48E-09,  avg # of iterations =  6.7

     negative rho (up, down):  2.076E-03 0.000E+00

     total cpu time spent up to now is     9359.7 secs

     total energy              =     -26.24282638 Ry
     estimated scf accuracy    <       0.00000001 Ry

     iteration # 22     ecut=    80.00 Ry     beta= 0.30
     Davidson diagonalization with overlap
     ethr =  1.62E-10,  avg # of iterations =  2.3

     negative rho (up, down):  2.084E-03 0.000E+00

     total cpu time spent up to now is     9368.4 secs

     total energy              =     -26.24282636 Ry
     estimated scf accuracy    <          1.1E-09 Ry

     iteration # 23     ecut=    80.00 Ry     beta= 0.30
     Davidson diagonalization with overlap
     ethr =  1.35E-11,  avg # of iterations =  5.4

     negative rho (up, down):  2.083E-03 0.000E+00

     total cpu time spent up to now is     9378.5 secs

     total energy              =     -26.24282636 Ry
     estimated scf accuracy    <       0.00000001 Ry

     iteration # 24     ecut=    80.00 Ry     beta= 0.30
     Davidson diagonalization with overlap
     ethr =  1.35E-11,  avg # of iterations =  5.4

     negative rho (up, down):  2.091E-03 0.000E+00

     total cpu time spent up to now is     9391.0 secs

     total energy              =     -26.24282636 Ry
     estimated scf accuracy    <          4.4E-10 Ry

     iteration # 25     ecut=    80.00 Ry     beta= 0.30
     Davidson diagonalization with overlap
     ethr =  5.53E-12,  avg # of iterations =  2.0

     negative rho (up, down):  2.095E-03 0.000E+00

     total cpu time spent up to now is     9397.7 secs

     total energy              =     -26.24282636 Ry
     estimated scf accuracy    <          4.2E-10 Ry

     iteration # 26     ecut=    80.00 Ry     beta= 0.30
     Davidson diagonalization with overlap
     ethr =  5.24E-12,  avg # of iterations =  6.3

     negative rho (up, down):  2.094E-03 0.000E+00

     total cpu time spent up to now is     9408.0 secs

     total energy              =     -26.24282636 Ry
     estimated scf accuracy    <          9.6E-09 Ry

     iteration # 27     ecut=    80.00 Ry     beta= 0.30
     Davidson diagonalization with overlap
     ethr =  5.24E-12,  avg # of iterations =  5.4

     negative rho (up, down):  2.095E-03 0.000E+00

     total cpu time spent up to now is     9414.4 secs

     total energy              =     -26.24282636 Ry
     estimated scf accuracy    <          1.2E-09 Ry

     iteration # 28     ecut=    80.00 Ry     beta= 0.30
     Davidson diagonalization with overlap
     ethr =  5.24E-12,  avg # of iterations =  4.1

     negative rho (up, down):  2.095E-03 0.000E+00

     total cpu time spent up to now is     9415.7 secs

     End of self-consistent calculation

          k = 0.0000 0.0000 0.0000 ( 85147 PWs)   bands (ev):

   -21.2876 -12.9916  -9.5429  -9.5429

          k = 0.1113 0.0000 0.0000 ( 85254 PWs)   bands (ev):

   -21.2557 -13.0882  -9.4121  -9.4121

          k = 0.2226 0.0000 0.0000 ( 85390 PWs)   bands (ev):

   -21.1661 -13.3481  -9.0241  -9.0241

          k = 0.3339 0.0000 0.0000 ( 85442 PWs)   bands (ev):

   -21.0373 -13.6962  -8.3961  -8.3961

          k = 0.4452 0.0000 0.0000 ( 85566 PWs)   bands (ev):

   -20.8997 -14.0394  -7.5746  -7.5746

          k = 0.5565 0.0000 0.0000 ( 85678 PWs)   bands (ev):

   -20.7925 -14.2897  -6.7037  -6.7037

          k =-0.6677 0.0000 0.0000 ( 85750 PWs)   bands (ev):

   -20.7517 -14.3814  -6.2459  -6.2459

     highest occupied level (ev):    -6.2459

!    total energy              =     -26.24282636 Ry
     estimated scf accuracy    <          7.5E-12 Ry

     The total energy is the sum of the following terms:
     one-electron contribution =    -103.40470004 Ry
     hartree contribution      =      52.70464146 Ry
     xc contribution           =      -7.99399424 Ry
     ewald contribution        =      32.45122646 Ry

     convergence has been achieved in  28 iterations

     negative rho (up, down):  2.095E-03 0.000E+00

     Forces acting on atoms (cartesian axes, Ry/au):

     atom    1 type  1   force =     0.00027271    0.00000000    0.00000000
     atom    2 type  2   force =    -0.00027271    0.00000000    0.00000000

     Total force =     0.000386     Total SCF correction =     0.000000


     Computing stress (Cartesian axis) and pressure


     negative rho (up, down):  2.095E-03 0.000E+00
          total   stress  (Ry/bohr**3)                   (kbar)     P=        0.00
  -0.00000001   0.00000000   0.00000000            0.00        0.00        0.00
   0.00000000  -0.00000003   0.00000000            0.00        0.00        0.00
   0.00000000   0.00000000  -0.00000003            0.00        0.00        0.00


     Writing output data file ./Chain2atoms.save/
 
     init_run     :      8.28s CPU      8.54s WALL (       2 calls)
     electrons    :   8702.88s CPU   9140.83s WALL (      21 calls)
     update_pot   :    103.08s CPU    103.45s WALL (      19 calls)
     forces       :     58.23s CPU     59.90s WALL (      21 calls)
     stress       :    101.20s CPU    104.94s WALL (      21 calls)

     Called by init_run:
     wfcinit      :      0.92s CPU      0.96s WALL (       2 calls)
     potinit      :      3.21s CPU      3.25s WALL (       2 calls)
     hinit0       :      3.47s CPU      3.52s WALL (       2 calls)

     Called by electrons:
     c_bands      :    435.10s CPU    453.80s WALL (     495 calls)
     sum_band     :    151.79s CPU    188.13s WALL (     495 calls)
     v_of_rho     :     57.39s CPU     59.95s WALL (     515 calls)
     newd         :     60.90s CPU     90.56s WALL (     515 calls)
     mix_rho      :   7999.65s CPU   8350.63s WALL (     495 calls)

     Called by c_bands:
     init_us_2    :     24.80s CPU     25.06s WALL (    7238 calls)
     cegterg      :    394.26s CPU    412.46s WALL (    3465 calls)

     Called by *egterg:
     cdiaghg      :     14.35s CPU     14.51s WALL (   14515 calls)
     h_psi        :    329.61s CPU    347.23s WALL (   14669 calls)
     s_psi        :      6.83s CPU      6.92s WALL (   14669 calls)
     g_psi        :      3.46s CPU      3.49s WALL (   11190 calls)

     Called by h_psi:
     h_psi:calbec :      9.50s CPU      9.60s WALL (   14669 calls)
     vloc_psi     :    307.94s CPU    325.35s WALL (   14669 calls)
     add_vuspsi   :     10.53s CPU     10.63s WALL (   14669 calls)

     General routines
     calbec       :     12.75s CPU     12.89s WALL (   18869 calls)
     fft          :     38.92s CPU     42.03s WALL (    6210 calls)
     ffts         :   4165.56s CPU   4500.55s WALL (  692022 calls)
     fftw         :    296.46s CPU    315.82s WALL (  112934 calls)
 
     Parallel routines
     fft_scatt_xy :    614.24s CPU    619.00s WALL (  811166 calls)
     fft_scatt_yz :   1820.70s CPU   2155.18s WALL (  811166 calls)
 
     PWSCF        :      2h29m CPU      2h37m WALL

 
   This run was terminated on:  13:38:44   7Dec2021            

=------------------------------------------------------------------------------=
   JOB DONE.
=------------------------------------------------------------------------------=
