
     Program Q2R v.6.7MaX starts on 14Jun2022 at 17:19:33 

     This program is part of the open-source Quantum ESPRESSO suite
     for quantum simulation of materials; please cite
         "P. Giannozzi et al., J. Phys.:Condens. Matter 21 395502 (2009);
         "P. Giannozzi et al., J. Phys.:Condens. Matter 29 465901 (2017);
          URL http://www.quantum-espresso.org", 
     in publications or presentations arising from this work. More details at
     http://www.quantum-espresso.org/quote

     Parallel version (MPI), running on     1 processors

     MPI processes distributed on     1 nodes

     reading grid info from file Si.dyn0    
  reading force constants from file Si.dyn1
 macroscopic fields = T
  12.82746   0.00000   0.00000
   0.00000  12.82746   0.00000
   0.00000   0.00000  12.82746
  na=            1
  -0.00668   0.00000   0.00000
   0.00000  -0.00668   0.00000
   0.00000   0.00000  -0.00668
  na=            2
  -0.00668   0.00000   0.00000
   0.00000  -0.00668   0.00000
   0.00000   0.00000  -0.00668
  nqs=            1
 q=   0.00000000  0.00000000  0.00000000
  reading force constants from file Si.dyn2
  nqs=            8
 q=  -0.20000000  0.20000000 -0.20000000
 q=  -0.20000000  0.20000000  0.20000000
 q=   0.20000000  0.20000000 -0.20000000
 q=   0.20000000  0.20000000  0.20000000
 q=   0.20000000 -0.20000000  0.20000000
 q=  -0.20000000 -0.20000000 -0.20000000
 q=   0.20000000 -0.20000000 -0.20000000
 q=  -0.20000000 -0.20000000  0.20000000
  reading force constants from file Si.dyn3
  nqs=            8
 q=  -0.40000000  0.40000000 -0.40000000
 q=  -0.40000000  0.40000000  0.40000000
 q=   0.40000000  0.40000000 -0.40000000
 q=   0.40000000  0.40000000  0.40000000
 q=   0.40000000 -0.40000000  0.40000000
 q=  -0.40000000 -0.40000000 -0.40000000
 q=   0.40000000 -0.40000000 -0.40000000
 q=  -0.40000000 -0.40000000  0.40000000
  reading force constants from file Si.dyn4
  nqs=            6
 q=   0.00000000  0.40000000  0.00000000
 q=   0.00000000  0.00000000 -0.40000000
 q=   0.00000000 -0.40000000  0.00000000
 q=   0.00000000  0.00000000  0.40000000
 q=   0.40000000  0.00000000  0.00000000
 q=  -0.40000000  0.00000000  0.00000000
  reading force constants from file Si.dyn5
  nqs=           24
 q=  -0.20000000  0.60000000 -0.20000000
 q=  -0.20000000  0.60000000  0.20000000
 q=   0.20000000  0.60000000 -0.20000000
 q=   0.20000000  0.60000000  0.20000000
 q=  -0.20000000  0.20000000 -0.60000000
 q=   0.20000000 -0.60000000  0.20000000
 q=  -0.20000000 -0.60000000 -0.20000000
 q=   0.20000000 -0.20000000  0.60000000
 q=   0.20000000  0.20000000 -0.60000000
 q=  -0.20000000 -0.20000000 -0.60000000
 q=  -0.20000000  0.20000000  0.60000000
 q=   0.60000000 -0.20000000 -0.20000000
 q=  -0.60000000 -0.20000000  0.20000000
 q=   0.60000000  0.20000000  0.20000000
 q=   0.20000000 -0.60000000 -0.20000000
 q=  -0.20000000 -0.20000000  0.60000000
 q=   0.20000000  0.20000000  0.60000000
 q=   0.20000000 -0.20000000 -0.60000000
 q=  -0.60000000  0.20000000 -0.20000000
 q=   0.60000000  0.20000000 -0.20000000
 q=  -0.20000000 -0.60000000  0.20000000
 q=  -0.60000000 -0.20000000 -0.20000000
 q=   0.60000000 -0.20000000  0.20000000
 q=  -0.60000000  0.20000000  0.20000000
  reading force constants from file Si.dyn6
  nqs=           24
 q=   0.60000000 -0.20000000  0.60000000
 q=   0.60000000 -0.20000000 -0.60000000
 q=  -0.60000000 -0.20000000  0.60000000
 q=  -0.60000000 -0.20000000 -0.60000000
 q=   0.60000000 -0.60000000  0.20000000
 q=  -0.60000000  0.20000000 -0.60000000
 q=   0.60000000  0.20000000  0.60000000
 q=  -0.60000000  0.60000000 -0.20000000
 q=  -0.60000000 -0.60000000  0.20000000
 q=   0.60000000  0.60000000  0.20000000
 q=   0.60000000 -0.60000000 -0.20000000
 q=  -0.20000000  0.60000000  0.60000000
 q=   0.20000000  0.60000000 -0.60000000
 q=  -0.20000000 -0.60000000 -0.60000000
 q=  -0.60000000  0.20000000  0.60000000
 q=   0.60000000  0.60000000 -0.20000000
 q=  -0.60000000 -0.60000000 -0.20000000
 q=  -0.60000000  0.60000000  0.20000000
 q=   0.20000000 -0.60000000  0.60000000
 q=  -0.20000000 -0.60000000  0.60000000
 q=   0.60000000  0.20000000 -0.60000000
 q=   0.20000000  0.60000000  0.60000000
 q=  -0.20000000  0.60000000 -0.60000000
 q=   0.20000000 -0.60000000 -0.60000000
  reading force constants from file Si.dyn7
  nqs=           12
 q=   0.40000000  0.00000000  0.40000000
 q=  -0.40000000  0.00000000 -0.40000000
 q=   0.40000000  0.00000000 -0.40000000
 q=  -0.40000000  0.00000000  0.40000000
 q=   0.40000000 -0.40000000  0.00000000
 q=  -0.40000000  0.40000000  0.00000000
 q=  -0.40000000 -0.40000000  0.00000000
 q=   0.40000000  0.40000000  0.00000000
 q=   0.00000000  0.40000000  0.40000000
 q=   0.00000000  0.40000000 -0.40000000
 q=   0.00000000 -0.40000000 -0.40000000
 q=   0.00000000 -0.40000000  0.40000000
  reading force constants from file Si.dyn8
  nqs=            6
 q=   0.00000000  0.80000000  0.00000000
 q=   0.00000000  0.00000000 -0.80000000
 q=   0.00000000 -0.80000000  0.00000000
 q=   0.00000000  0.00000000  0.80000000
 q=   0.80000000  0.00000000  0.00000000
 q=  -0.80000000  0.00000000  0.00000000
  reading force constants from file Si.dyn9
  nqs=           12
 q=   0.80000000  0.00000000  0.80000000
 q=  -0.80000000  0.00000000  0.80000000
 q=  -0.80000000  0.00000000 -0.80000000
 q=   0.80000000  0.00000000 -0.80000000
 q=   0.80000000 -0.80000000  0.00000000
 q=  -0.80000000  0.80000000  0.00000000
 q=  -0.80000000 -0.80000000  0.00000000
 q=   0.80000000  0.80000000  0.00000000
 q=   0.00000000  0.80000000  0.80000000
 q=   0.00000000  0.80000000 -0.80000000
 q=   0.00000000 -0.80000000 -0.80000000
 q=   0.00000000 -0.80000000  0.80000000
  reading force constants from file Si.dyn10
  nqs=           24
 q=   0.60000000 -0.20000000  1.00000000
 q=   1.00000000  0.20000000  0.60000000
 q=   0.60000000  0.20000000  1.00000000
 q=  -0.60000000 -0.20000000  1.00000000
 q=  -1.00000000 -0.20000000 -0.60000000
 q=  -1.00000000 -0.20000000  0.60000000
 q=   0.60000000 -1.00000000  0.20000000
 q=  -1.00000000  0.20000000 -0.60000000
 q=   1.00000000 -0.60000000  0.20000000
 q=  -0.60000000  1.00000000 -0.20000000
 q=  -0.60000000 -1.00000000  0.20000000
 q=   0.60000000 -1.00000000 -0.20000000
 q=  -0.20000000  1.00000000  0.60000000
 q=   0.20000000  1.00000000 -0.60000000
 q=  -0.20000000 -1.00000000 -0.60000000
 q=  -0.60000000  0.20000000  1.00000000
 q=   1.00000000  0.60000000 -0.20000000
 q=  -1.00000000 -0.60000000 -0.20000000
 q=  -1.00000000  0.60000000  0.20000000
 q=   0.20000000 -0.60000000  1.00000000
 q=   0.20000000 -1.00000000  0.60000000
 q=  -0.20000000 -0.60000000  1.00000000
 q=  -0.20000000  0.60000000  1.00000000
 q=   0.20000000  0.60000000 -1.00000000

      q-space grid ok, #points =  125

      fft-check success (sum of imaginary terms < 10^-12)
 
     Q2R          :      0.03s CPU      0.21s WALL

 
   This run was terminated on:  17:19:33  14Jun2022            

=------------------------------------------------------------------------------=
   JOB DONE.
=------------------------------------------------------------------------------=
