
     Program PHONON v.6.7MaX starts on 14Jun2022 at 15:56:39 

     This program is part of the open-source Quantum ESPRESSO suite
     for quantum simulation of materials; please cite
         "P. Giannozzi et al., J. Phys.:Condens. Matter 21 395502 (2009);
         "P. Giannozzi et al., J. Phys.:Condens. Matter 29 465901 (2017);
          URL http://www.quantum-espresso.org", 
     in publications or presentations arising from this work. More details at
     http://www.quantum-espresso.org/quote

     Parallel version (MPI), running on    20 processors

     MPI processes distributed on     1 nodes
     R & G space division:  proc/nbgrp/npool/nimage =      20
     Waiting for input...
     Reading input from standard input

     Reading xml data from directory:

     ./Silicon.save/
     Message from routine qexsd_readschema :
     input info not found or not readable in xml file

     IMPORTANT: XC functional enforced from input :
     Exchange-correlation= PBE
                           (   1   4   3   4   0   0   0)
     Any further DFT definition will be discarded
     Please, verify this is what you really want

 
     Parallelization info
     --------------------
     sticks:   dense  smooth     PW     G-vecs:    dense   smooth      PW
     Min          36      29      9                  646      462      81
     Max          37      30     10                  648      465      83
     Sum         733     583    187                12939     9257    1639
 
     Reading collected, re-writing distributed wavefunctions


     Dynamical matrices for ( 5, 5, 5)  uniform grid of q-points
     (  10 q-points):
       N         xq(1)         xq(2)         xq(3) 
       1   0.000000000   0.000000000   0.000000000
       2  -0.200000000   0.200000000  -0.200000000
       3  -0.400000000   0.400000000  -0.400000000
       4   0.000000000   0.400000000   0.000000000
       5  -0.200000000   0.600000000  -0.200000000
       6   0.600000000  -0.200000000   0.600000000
       7   0.400000000   0.000000000   0.400000000
       8   0.000000000   0.800000000   0.000000000
       9   0.800000000   0.000000000   0.800000000
      10   0.600000000  -0.200000000   1.000000000

     Calculation of q =    0.0000000   0.0000000   0.0000000

                                                                                

     bravais-lattice index     =            2
     lattice parameter (alat)  =      10.2623  a.u.
     unit-cell volume          =     270.1967 (a.u.)^3
     number of atoms/cell      =            2
     number of atomic types    =            1
     kinetic-energy cut-off    =      40.0000  Ry
     charge density cut-off    =     200.0000  Ry
     convergence threshold     =      1.0E-20
     beta                      =       0.7000
     number of iterations used =            4
     Exchange-correlation= PBE
                           (   1   4   3   4   0   0   0)


     celldm(1)=   10.26235  celldm(2)=    0.00000  celldm(3)=    0.00000
     celldm(4)=    0.00000  celldm(5)=    0.00000  celldm(6)=    0.00000

     crystal axes: (cart. coord. in units of alat)
               a(1) = ( -0.5000  0.0000  0.5000 )  
               a(2) = (  0.0000  0.5000  0.5000 )  
               a(3) = ( -0.5000  0.5000  0.0000 )  

     reciprocal axes: (cart. coord. in units 2 pi/alat)
               b(1) = ( -1.0000 -1.0000  1.0000 )  
               b(2) = (  1.0000  1.0000  1.0000 )  
               b(3) = ( -1.0000  1.0000 -1.0000 )  


     Atoms inside the unit cell: 

     Cartesian axes

     site n.  atom      mass           positions (alat units)
        1     Si  28.0860   tau(    1) = (    0.00000    0.00000    0.00000  )
        2     Si  28.0860   tau(    2) = (   -0.25000    0.25000    0.25000  )

     Computing dynamical matrix for 
                    q = (   0.0000000   0.0000000   0.0000000 )
 
     49 Sym.Ops. (with q -> -q+G )


     G cutoff =  533.5359  (    648 G-vectors)     FFT grid: ( 36, 36, 36)
     G cutoff =  426.8287  (    463 G-vectors)  smooth grid: ( 32, 32, 32)
     number of k points=    72

     PseudoPot. # 1 for Si read from file:
     ../Pseudo/Si.pbe-rrkj.UPF
     MD5 check sum: cf7ab5690cd9a85b22c4813f7e365554
     Pseudo is Norm-conserving, Zval =  4.0
     Generated by new atomic code, or converted to UPF format
     Using radial grid of  883 points,  3 beta functions with: 
                l(1) =   0
                l(2) =   0
                l(3) =   1

     Mode symmetry, O_h (m-3m)  point group:


     Electric field:
     Dielectric constant
     Born effective charges in two ways 


     Atomic displacements:
     There are    2 irreducible representations

     Representation     1      3 modes -  To be done

     Representation     2      3 modes -  To be done



     Alpha used in Ewald sum =   2.1000
     PHONON       :      0.36s CPU      0.49s WALL


     Electric Fields Calculation

      iter #   1 total cpu time :     6.4 secs   av.it.:   6.1
      thresh= 1.000E-02 alpha_mix =  0.700 |ddv_scf|^2 =  1.183E-07

      iter #   2 total cpu time :     9.1 secs   av.it.:  10.7
      thresh= 3.439E-05 alpha_mix =  0.700 |ddv_scf|^2 =  6.590E-09

      iter #   3 total cpu time :    11.9 secs   av.it.:  10.5
      thresh= 8.118E-06 alpha_mix =  0.700 |ddv_scf|^2 =  3.952E-10

      iter #   4 total cpu time :    14.8 secs   av.it.:  10.1
      thresh= 1.988E-06 alpha_mix =  0.700 |ddv_scf|^2 =  1.121E-12

      iter #   5 total cpu time :    17.5 secs   av.it.:  10.7
      thresh= 1.059E-07 alpha_mix =  0.700 |ddv_scf|^2 =  3.077E-15

      iter #   6 total cpu time :    20.3 secs   av.it.:   9.7
      thresh= 5.547E-09 alpha_mix =  0.700 |ddv_scf|^2 =  1.906E-16

      iter #   7 total cpu time :    23.1 secs   av.it.:  10.6
      thresh= 1.381E-09 alpha_mix =  0.700 |ddv_scf|^2 =  1.543E-19

      iter #   8 total cpu time :    25.7 secs   av.it.:   9.1
      thresh= 3.928E-11 alpha_mix =  0.700 |ddv_scf|^2 =  1.682E-20

      iter #   9 total cpu time :    28.1 secs   av.it.:  10.0
      thresh= 1.297E-11 alpha_mix =  0.700 |ddv_scf|^2 =  2.132E-23

     End of electric fields calculation

          Dielectric constant in cartesian axis 

          (      12.827461053       0.000000000       0.000000000 )
          (       0.000000000      12.827461053       0.000000000 )
          (       0.000000000       0.000000000      12.827461053 )

          Effective charges (d Force / dE) in cartesian axis

           atom      1   Si 
      Ex  (       -0.00668        0.00000        0.00000 )
      Ey  (        0.00000       -0.00668        0.00000 )
      Ez  (        0.00000        0.00000       -0.00668 )
           atom      2   Si 
      Ex  (       -0.00668        0.00000        0.00000 )
      Ey  (        0.00000       -0.00668        0.00000 )
      Ez  (        0.00000        0.00000       -0.00668 )


     Representation #   1 modes #   1   2   3

     Self-consistent Calculation

      iter #   1 total cpu time :    30.8 secs   av.it.:   5.5
      thresh= 1.000E-02 alpha_mix =  0.700 |ddv_scf|^2 =  2.627E-08

      iter #   2 total cpu time :    33.3 secs   av.it.:  11.0
      thresh= 1.621E-05 alpha_mix =  0.700 |ddv_scf|^2 =  5.667E-10

      iter #   3 total cpu time :    36.1 secs   av.it.:  10.8
      thresh= 2.380E-06 alpha_mix =  0.700 |ddv_scf|^2 =  3.267E-11

      iter #   4 total cpu time :    38.9 secs   av.it.:   9.8
      thresh= 5.716E-07 alpha_mix =  0.700 |ddv_scf|^2 =  1.845E-14

      iter #   5 total cpu time :    41.8 secs   av.it.:  10.6
      thresh= 1.358E-08 alpha_mix =  0.700 |ddv_scf|^2 =  4.126E-16

      iter #   6 total cpu time :    44.8 secs   av.it.:  10.5
      thresh= 2.031E-09 alpha_mix =  0.700 |ddv_scf|^2 =  4.415E-18

      iter #   7 total cpu time :    47.1 secs   av.it.:  10.9
      thresh= 2.101E-10 alpha_mix =  0.700 |ddv_scf|^2 =  5.828E-20

      iter #   8 total cpu time :    49.8 secs   av.it.:   9.8
      thresh= 2.414E-11 alpha_mix =  0.700 |ddv_scf|^2 =  4.910E-21

     End of self-consistent calculation

     Convergence has been achieved 


     Representation #   2 modes #   4   5   6

     Self-consistent Calculation

      iter #   1 total cpu time :    52.0 secs   av.it.:   5.6
      thresh= 1.000E-02 alpha_mix =  0.700 |ddv_scf|^2 =  1.802E-08

      iter #   2 total cpu time :    54.4 secs   av.it.:  11.1
      thresh= 1.342E-05 alpha_mix =  0.700 |ddv_scf|^2 =  7.622E-10

      iter #   3 total cpu time :    57.5 secs   av.it.:  10.9
      thresh= 2.761E-06 alpha_mix =  0.700 |ddv_scf|^2 =  3.632E-11

      iter #   4 total cpu time :    60.1 secs   av.it.:  10.1
      thresh= 6.026E-07 alpha_mix =  0.700 |ddv_scf|^2 =  2.878E-14

      iter #   5 total cpu time :    63.3 secs   av.it.:  11.0
      thresh= 1.696E-08 alpha_mix =  0.700 |ddv_scf|^2 =  3.967E-16

      iter #   6 total cpu time :    66.2 secs   av.it.:  10.8
      thresh= 1.992E-09 alpha_mix =  0.700 |ddv_scf|^2 =  4.867E-18

      iter #   7 total cpu time :    69.4 secs   av.it.:  10.9
      thresh= 2.206E-10 alpha_mix =  0.700 |ddv_scf|^2 =  8.965E-21

     End of self-consistent calculation

     Convergence has been achieved 
 
     Number of q in the star =    1
     List of q in the star:
          1   0.000000000   0.000000000   0.000000000

          Dielectric constant in cartesian axis 

          (      12.827461053       0.000000000       0.000000000 )
          (       0.000000000      12.827461053       0.000000000 )
          (       0.000000000       0.000000000      12.827461053 )

          Effective charges (d Force / dE) in cartesian axis

           atom      1   Si 
      Ex  (       -0.00668        0.00000        0.00000 )
      Ey  (        0.00000       -0.00668        0.00000 )
      Ez  (        0.00000        0.00000       -0.00668 )
           atom      2   Si 
      Ex  (       -0.00668        0.00000        0.00000 )
      Ey  (        0.00000       -0.00668        0.00000 )
      Ez  (        0.00000        0.00000       -0.00668 )

          Effective charges (d P / du) in cartesian axis 

           atom      1   Si 
      Px  (       -0.00668        0.00000        0.00000 )
      Py  (        0.00000       -0.00668        0.00000 )
      Pz  (        0.00000        0.00000       -0.00668 )
           atom      2   Si 
      Px  (       -0.00668        0.00000        0.00000 )
      Py  (        0.00000       -0.00668        0.00000 )
      Pz  (        0.00000        0.00000       -0.00668 )

     Diagonalizing the dynamical matrix

     q = (    0.000000000   0.000000000   0.000000000 ) 

 **************************************************************************
     freq (    1) =       0.265684 [THz] =       8.862249 [cm-1]
     freq (    2) =       0.265684 [THz] =       8.862249 [cm-1]
     freq (    3) =       0.265684 [THz] =       8.862249 [cm-1]
     freq (    4) =      15.313356 [THz] =     510.798565 [cm-1]
     freq (    5) =      15.313356 [THz] =     510.798565 [cm-1]
     freq (    6) =      15.313356 [THz] =     510.798565 [cm-1]
 **************************************************************************

     Mode symmetry, O_h (m-3m)  point group:

     freq (   1-   3) =          8.9  [cm-1]   --> T_1u G_15  G_4- I  
     freq (   4-   6) =        510.8  [cm-1]   --> T_2g G_25' G_5+ R  

     Calculation of q =   -0.2000000   0.2000000  -0.2000000

     Subspace diagonalization in iterative solution of the eigenvalue problem:
     one sub-group per band group will be used
     scalapack distributed-memory algorithm (size of sub-group:  4*  4 procs)

 
     Parallelization info
     --------------------
     sticks:   dense  smooth     PW     G-vecs:    dense   smooth      PW
     Min          36      29      9                  646      462      89
     Max          37      30     10                  648      465      91
     Sum         733     583    199                12939     9257    1807
 


     bravais-lattice index     =            2
     lattice parameter (alat)  =      10.2623  a.u.
     unit-cell volume          =     270.1967 (a.u.)^3
     number of atoms/cell      =            2
     number of atomic types    =            1
     number of electrons       =         8.00
     number of Kohn-Sham states=            4
     kinetic-energy cutoff     =      40.0000  Ry
     charge density cutoff     =     200.0000  Ry
     Exchange-correlation= PBE
                           (   1   4   3   4   0   0   0)

     celldm(1)=  10.262347  celldm(2)=   0.000000  celldm(3)=   0.000000
     celldm(4)=   0.000000  celldm(5)=   0.000000  celldm(6)=   0.000000

     crystal axes: (cart. coord. in units of alat)
               a(1) = (  -0.500000   0.000000   0.500000 )  
               a(2) = (   0.000000   0.500000   0.500000 )  
               a(3) = (  -0.500000   0.500000   0.000000 )  

     reciprocal axes: (cart. coord. in units 2 pi/alat)
               b(1) = ( -1.000000 -1.000000  1.000000 )  
               b(2) = (  1.000000  1.000000  1.000000 )  
               b(3) = ( -1.000000  1.000000 -1.000000 )  


     PseudoPot. # 1 for Si read from file:
     ../Pseudo/Si.pbe-rrkj.UPF
     MD5 check sum: cf7ab5690cd9a85b22c4813f7e365554
     Pseudo is Norm-conserving, Zval =  4.0
     Generated by new atomic code, or converted to UPF format
     Using radial grid of  883 points,  3 beta functions with: 
                l(1) =   0
                l(2) =   0
                l(3) =   1

     atomic species   valence    mass     pseudopotential
        Si             4.00    28.08600     Si( 1.00)

     48 Sym. Ops., with inversion, found



   Cartesian axes

     site n.     atom                  positions (alat units)
         1           Si  tau(   1) = (   0.0000000   0.0000000   0.0000000  )
         2           Si  tau(   2) = (  -0.2500000   0.2500000   0.2500000  )

     number of k points=   728

     Number of k-points >= 100: set verbosity='high' to print them.

     Dense  grid:    12939 G-vectors     FFT dimensions: (  36,  36,  36)

     Smooth grid:     9257 G-vectors     FFT dimensions: (  32,  32,  32)

     Estimated max dynamical RAM per process >       0.50 MB

     Estimated total dynamical RAM >       9.97 MB

     The potential is recalculated from file :
     ./_ph0/Silicon.save/charge-density

     Starting wfcs are    8 atomic wfcs

     Band Structure Calculation
     Davidson diagonalization with overlap

     ethr =  1.25E-10,  avg # of iterations = 12.3

     total cpu time spent up to now is       32.8 secs

     End of band structure calculation

     Number of k-points >= 100: set verbosity='high' to print the bands.

     highest occupied level (ev):     6.2271

     Writing output data file ./_ph0/Silicon.save/

                                                                                

     bravais-lattice index     =            2
     lattice parameter (alat)  =      10.2623  a.u.
     unit-cell volume          =     270.1967 (a.u.)^3
     number of atoms/cell      =            2
     number of atomic types    =            1
     kinetic-energy cut-off    =      40.0000  Ry
     charge density cut-off    =     200.0000  Ry
     convergence threshold     =      1.0E-20
     beta                      =       0.7000
     number of iterations used =            4
     Exchange-correlation= PBE
                           (   1   4   3   4   0   0   0)


     celldm(1)=   10.26235  celldm(2)=    0.00000  celldm(3)=    0.00000
     celldm(4)=    0.00000  celldm(5)=    0.00000  celldm(6)=    0.00000

     crystal axes: (cart. coord. in units of alat)
               a(1) = ( -0.5000  0.0000  0.5000 )  
               a(2) = (  0.0000  0.5000  0.5000 )  
               a(3) = ( -0.5000  0.5000  0.0000 )  

     reciprocal axes: (cart. coord. in units 2 pi/alat)
               b(1) = ( -1.0000 -1.0000  1.0000 )  
               b(2) = (  1.0000  1.0000  1.0000 )  
               b(3) = ( -1.0000  1.0000 -1.0000 )  


     Atoms inside the unit cell: 

     Cartesian axes

     site n.  atom      mass           positions (alat units)
        1     Si  28.0860   tau(    1) = (    0.00000    0.00000    0.00000  )
        2     Si  28.0860   tau(    2) = (   -0.25000    0.25000    0.25000  )

     Computing dynamical matrix for 
                    q = (  -0.2000000   0.2000000  -0.2000000 )
 
      6 Sym.Ops. (no q -> -q+G )


     G cutoff =  533.5359  (    648 G-vectors)     FFT grid: ( 36, 36, 36)
     G cutoff =  426.8287  (    463 G-vectors)  smooth grid: ( 32, 32, 32)
     number of k points=   728

     PseudoPot. # 1 for Si read from file:
     ../Pseudo/Si.pbe-rrkj.UPF
     MD5 check sum: cf7ab5690cd9a85b22c4813f7e365554
     Pseudo is Norm-conserving, Zval =  4.0
     Generated by new atomic code, or converted to UPF format
     Using radial grid of  883 points,  3 beta functions with: 
                l(1) =   0
                l(2) =   0
                l(3) =   1

     Mode symmetry, C_3v (3m)   point group:


     Atomic displacements:
     There are    4 irreducible representations

     Representation     1      1 modes -  To be done

     Representation     2      1 modes -  To be done

     Representation     3      2 modes -  To be done

     Representation     4      2 modes -  To be done



     Alpha used in Ewald sum =   2.1000
     PHONON       :   1m36.66s CPU   1m42.71s WALL



     Representation #   1 mode #   1

     Self-consistent Calculation

      iter #   1 total cpu time :   105.6 secs   av.it.:   6.3
      thresh= 1.000E-02 alpha_mix =  0.700 |ddv_scf|^2 =  8.294E-04

      iter #   2 total cpu time :   109.6 secs   av.it.:   8.6
      thresh= 2.880E-03 alpha_mix =  0.700 |ddv_scf|^2 =  1.911E-02

      iter #   3 total cpu time :   112.8 secs   av.it.:   7.1
      thresh= 1.000E-02 alpha_mix =  0.700 |ddv_scf|^2 =  3.456E-07

      iter #   4 total cpu time :   116.6 secs   av.it.:   9.0
      thresh= 5.879E-05 alpha_mix =  0.700 |ddv_scf|^2 =  4.485E-08

      iter #   5 total cpu time :   120.6 secs   av.it.:   8.7
      thresh= 2.118E-05 alpha_mix =  0.700 |ddv_scf|^2 =  2.602E-10

      iter #   6 total cpu time :   124.3 secs   av.it.:   9.1
      thresh= 1.613E-06 alpha_mix =  0.700 |ddv_scf|^2 =  6.026E-11

      iter #   7 total cpu time :   127.9 secs   av.it.:   8.5
      thresh= 7.763E-07 alpha_mix =  0.700 |ddv_scf|^2 =  1.795E-10

      iter #   8 total cpu time :   131.5 secs   av.it.:   7.6
      thresh= 1.340E-06 alpha_mix =  0.700 |ddv_scf|^2 =  4.982E-13

      iter #   9 total cpu time :   134.9 secs   av.it.:   8.0
      thresh= 7.058E-08 alpha_mix =  0.700 |ddv_scf|^2 =  1.325E-15

      iter #  10 total cpu time :   138.7 secs   av.it.:   8.9
      thresh= 3.640E-09 alpha_mix =  0.700 |ddv_scf|^2 =  2.363E-16

      iter #  11 total cpu time :   142.8 secs   av.it.:   9.4
      thresh= 1.537E-09 alpha_mix =  0.700 |ddv_scf|^2 =  3.509E-17

      iter #  12 total cpu time :   146.8 secs   av.it.:   8.7
      thresh= 5.924E-10 alpha_mix =  0.700 |ddv_scf|^2 =  8.567E-19

      iter #  13 total cpu time :   150.8 secs   av.it.:   9.3
      thresh= 9.256E-11 alpha_mix =  0.700 |ddv_scf|^2 =  1.910E-19

      iter #  14 total cpu time :   154.6 secs   av.it.:   9.0
      thresh= 4.370E-11 alpha_mix =  0.700 |ddv_scf|^2 =  2.817E-21

     End of self-consistent calculation

     Convergence has been achieved 


     Representation #   2 mode #   2

     Self-consistent Calculation

      iter #   1 total cpu time :   158.0 secs   av.it.:   6.3
      thresh= 1.000E-02 alpha_mix =  0.700 |ddv_scf|^2 =  8.294E-04

      iter #   2 total cpu time :   161.7 secs   av.it.:   8.6
      thresh= 2.880E-03 alpha_mix =  0.700 |ddv_scf|^2 =  1.911E-02

      iter #   3 total cpu time :   164.8 secs   av.it.:   7.1
      thresh= 1.000E-02 alpha_mix =  0.700 |ddv_scf|^2 =  3.457E-07

      iter #   4 total cpu time :   169.0 secs   av.it.:   9.0
      thresh= 5.880E-05 alpha_mix =  0.700 |ddv_scf|^2 =  4.481E-08

      iter #   5 total cpu time :   172.8 secs   av.it.:   8.7
      thresh= 2.117E-05 alpha_mix =  0.700 |ddv_scf|^2 =  2.532E-10

      iter #   6 total cpu time :   176.5 secs   av.it.:   9.2
      thresh= 1.591E-06 alpha_mix =  0.700 |ddv_scf|^2 =  6.837E-11

      iter #   7 total cpu time :   180.3 secs   av.it.:   8.5
      thresh= 8.269E-07 alpha_mix =  0.700 |ddv_scf|^2 =  2.005E-10

      iter #   8 total cpu time :   183.6 secs   av.it.:   7.5
      thresh= 1.416E-06 alpha_mix =  0.700 |ddv_scf|^2 =  3.856E-13

      iter #   9 total cpu time :   186.9 secs   av.it.:   8.1
      thresh= 6.210E-08 alpha_mix =  0.700 |ddv_scf|^2 =  1.289E-15

      iter #  10 total cpu time :   191.0 secs   av.it.:   8.9
      thresh= 3.591E-09 alpha_mix =  0.700 |ddv_scf|^2 =  2.606E-16

      iter #  11 total cpu time :   194.9 secs   av.it.:   9.3
      thresh= 1.614E-09 alpha_mix =  0.700 |ddv_scf|^2 =  3.612E-17

      iter #  12 total cpu time :   198.5 secs   av.it.:   8.6
      thresh= 6.010E-10 alpha_mix =  0.700 |ddv_scf|^2 =  3.661E-19

      iter #  13 total cpu time :   202.6 secs   av.it.:   9.6
      thresh= 6.051E-11 alpha_mix =  0.700 |ddv_scf|^2 =  1.806E-19

      iter #  14 total cpu time :   206.5 secs   av.it.:   8.9
      thresh= 4.250E-11 alpha_mix =  0.700 |ddv_scf|^2 =  2.459E-21

     End of self-consistent calculation

     Convergence has been achieved 


     Representation #   3 modes #   3   4

     Self-consistent Calculation

      iter #   1 total cpu time :   212.3 secs   av.it.:   5.9
      thresh= 1.000E-02 alpha_mix =  0.700 |ddv_scf|^2 =  6.380E-08

      iter #   2 total cpu time :   221.2 secs   av.it.:  11.2
      thresh= 2.526E-05 alpha_mix =  0.700 |ddv_scf|^2 =  3.148E-09

      iter #   3 total cpu time :   230.3 secs   av.it.:  10.9
      thresh= 5.611E-06 alpha_mix =  0.700 |ddv_scf|^2 =  9.114E-11

      iter #   4 total cpu time :   238.4 secs   av.it.:  10.4
      thresh= 9.547E-07 alpha_mix =  0.700 |ddv_scf|^2 =  2.448E-12

      iter #   5 total cpu time :   246.3 secs   av.it.:  10.7
      thresh= 1.564E-07 alpha_mix =  0.700 |ddv_scf|^2 =  8.104E-15

      iter #   6 total cpu time :   254.4 secs   av.it.:  10.7
      thresh= 9.002E-09 alpha_mix =  0.700 |ddv_scf|^2 =  1.897E-16

      iter #   7 total cpu time :   262.6 secs   av.it.:  10.3
      thresh= 1.377E-09 alpha_mix =  0.700 |ddv_scf|^2 =  2.303E-18

      iter #   8 total cpu time :   271.7 secs   av.it.:  10.9
      thresh= 1.518E-10 alpha_mix =  0.700 |ddv_scf|^2 =  8.203E-20

      iter #   9 total cpu time :   280.1 secs   av.it.:  11.0
      thresh= 2.864E-11 alpha_mix =  0.700 |ddv_scf|^2 =  1.813E-21

     End of self-consistent calculation

     Convergence has been achieved 


     Representation #   4 modes #   5   6

     Self-consistent Calculation

      iter #   1 total cpu time :   285.7 secs   av.it.:   5.7
      thresh= 1.000E-02 alpha_mix =  0.700 |ddv_scf|^2 =  6.380E-08

      iter #   2 total cpu time :   295.1 secs   av.it.:  11.0
      thresh= 2.526E-05 alpha_mix =  0.700 |ddv_scf|^2 =  3.147E-09

      iter #   3 total cpu time :   303.4 secs   av.it.:  10.7
      thresh= 5.610E-06 alpha_mix =  0.700 |ddv_scf|^2 =  9.107E-11

      iter #   4 total cpu time :   311.2 secs   av.it.:  10.2
      thresh= 9.543E-07 alpha_mix =  0.700 |ddv_scf|^2 =  2.451E-12

      iter #   5 total cpu time :   320.2 secs   av.it.:  10.5
      thresh= 1.566E-07 alpha_mix =  0.700 |ddv_scf|^2 =  8.109E-15

      iter #   6 total cpu time :   328.8 secs   av.it.:  10.5
      thresh= 9.005E-09 alpha_mix =  0.700 |ddv_scf|^2 =  1.881E-16

      iter #   7 total cpu time :   337.5 secs   av.it.:  10.2
      thresh= 1.372E-09 alpha_mix =  0.700 |ddv_scf|^2 =  2.310E-18

      iter #   8 total cpu time :   345.6 secs   av.it.:  10.7
      thresh= 1.520E-10 alpha_mix =  0.700 |ddv_scf|^2 =  8.322E-20

      iter #   9 total cpu time :   354.3 secs   av.it.:  10.9
      thresh= 2.885E-11 alpha_mix =  0.700 |ddv_scf|^2 =  1.826E-21

     End of self-consistent calculation

     Convergence has been achieved 
 
     Number of q in the star =    8
     List of q in the star:
          1  -0.200000000   0.200000000  -0.200000000
          2  -0.200000000   0.200000000   0.200000000
          3   0.200000000   0.200000000  -0.200000000
          4   0.200000000   0.200000000   0.200000000
          5   0.200000000  -0.200000000   0.200000000
          6  -0.200000000  -0.200000000  -0.200000000
          7   0.200000000  -0.200000000  -0.200000000
          8  -0.200000000  -0.200000000   0.200000000

     Diagonalizing the dynamical matrix

     q = (   -0.200000000   0.200000000  -0.200000000 ) 

 **************************************************************************
     freq (    1) =       2.514030 [THz] =      83.859009 [cm-1]
     freq (    2) =       2.514030 [THz] =      83.859009 [cm-1]
     freq (    3) =       5.638479 [THz] =     188.079429 [cm-1]
     freq (    4) =      14.762678 [THz] =     492.429925 [cm-1]
     freq (    5) =      14.878964 [THz] =     496.308807 [cm-1]
     freq (    6) =      14.878964 [THz] =     496.308807 [cm-1]
 **************************************************************************

     Mode symmetry, C_3v (3m)   point group:

     freq (   1-   2) =         83.9  [cm-1]   --> E    L_3           
     freq (   3-   3) =        188.1  [cm-1]   --> A_1  L_1           
     freq (   4-   4) =        492.4  [cm-1]   --> A_1  L_1           
     freq (   5-   6) =        496.3  [cm-1]   --> E    L_3           

     Calculation of q =   -0.4000000   0.4000000  -0.4000000
 
     Parallelization info
     --------------------
     sticks:   dense  smooth     PW     G-vecs:    dense   smooth      PW
     Min          36      29      9                  646      462      93
     Max          37      30     10                  649      465      97
     Sum         733     583    199                12939     9257    1917
 


     bravais-lattice index     =            2
     lattice parameter (alat)  =      10.2623  a.u.
     unit-cell volume          =     270.1967 (a.u.)^3
     number of atoms/cell      =            2
     number of atomic types    =            1
     number of electrons       =         8.00
     number of Kohn-Sham states=            4
     kinetic-energy cutoff     =      40.0000  Ry
     charge density cutoff     =     200.0000  Ry
     Exchange-correlation= PBE
                           (   1   4   3   4   0   0   0)

     celldm(1)=  10.262347  celldm(2)=   0.000000  celldm(3)=   0.000000
     celldm(4)=   0.000000  celldm(5)=   0.000000  celldm(6)=   0.000000

     crystal axes: (cart. coord. in units of alat)
               a(1) = (  -0.500000   0.000000   0.500000 )  
               a(2) = (   0.000000   0.500000   0.500000 )  
               a(3) = (  -0.500000   0.500000   0.000000 )  

     reciprocal axes: (cart. coord. in units 2 pi/alat)
               b(1) = ( -1.000000 -1.000000  1.000000 )  
               b(2) = (  1.000000  1.000000  1.000000 )  
               b(3) = ( -1.000000  1.000000 -1.000000 )  


     PseudoPot. # 1 for Si read from file:
     ../Pseudo/Si.pbe-rrkj.UPF
     MD5 check sum: cf7ab5690cd9a85b22c4813f7e365554
     Pseudo is Norm-conserving, Zval =  4.0
     Generated by new atomic code, or converted to UPF format
     Using radial grid of  883 points,  3 beta functions with: 
                l(1) =   0
                l(2) =   0
                l(3) =   1

     atomic species   valence    mass     pseudopotential
        Si             4.00    28.08600     Si( 1.00)

     48 Sym. Ops., with inversion, found



   Cartesian axes

     site n.     atom                  positions (alat units)
         1           Si  tau(   1) = (   0.0000000   0.0000000   0.0000000  )
         2           Si  tau(   2) = (  -0.2500000   0.2500000   0.2500000  )

     number of k points=   728

     Number of k-points >= 100: set verbosity='high' to print them.

     Dense  grid:    12939 G-vectors     FFT dimensions: (  36,  36,  36)

     Smooth grid:     9257 G-vectors     FFT dimensions: (  32,  32,  32)

     Estimated max dynamical RAM per process >       0.50 MB

     Estimated total dynamical RAM >      10.03 MB

     The potential is recalculated from file :
     ./_ph0/Silicon.save/charge-density

     Starting wfcs are    8 atomic wfcs

     Band Structure Calculation
     Davidson diagonalization with overlap

     ethr =  1.25E-10,  avg # of iterations = 12.3

     total cpu time spent up to now is       66.9 secs

     End of band structure calculation

     Number of k-points >= 100: set verbosity='high' to print the bands.

     highest occupied level (ev):     6.2271

     Writing output data file ./_ph0/Silicon.save/

                                                                                

     bravais-lattice index     =            2
     lattice parameter (alat)  =      10.2623  a.u.
     unit-cell volume          =     270.1967 (a.u.)^3
     number of atoms/cell      =            2
     number of atomic types    =            1
     kinetic-energy cut-off    =      40.0000  Ry
     charge density cut-off    =     200.0000  Ry
     convergence threshold     =      1.0E-20
     beta                      =       0.7000
     number of iterations used =            4
     Exchange-correlation= PBE
                           (   1   4   3   4   0   0   0)


     celldm(1)=   10.26235  celldm(2)=    0.00000  celldm(3)=    0.00000
     celldm(4)=    0.00000  celldm(5)=    0.00000  celldm(6)=    0.00000

     crystal axes: (cart. coord. in units of alat)
               a(1) = ( -0.5000  0.0000  0.5000 )  
               a(2) = (  0.0000  0.5000  0.5000 )  
               a(3) = ( -0.5000  0.5000  0.0000 )  

     reciprocal axes: (cart. coord. in units 2 pi/alat)
               b(1) = ( -1.0000 -1.0000  1.0000 )  
               b(2) = (  1.0000  1.0000  1.0000 )  
               b(3) = ( -1.0000  1.0000 -1.0000 )  


     Atoms inside the unit cell: 

     Cartesian axes

     site n.  atom      mass           positions (alat units)
        1     Si  28.0860   tau(    1) = (    0.00000    0.00000    0.00000  )
        2     Si  28.0860   tau(    2) = (   -0.25000    0.25000    0.25000  )

     Computing dynamical matrix for 
                    q = (  -0.4000000   0.4000000  -0.4000000 )
 
      6 Sym.Ops. (no q -> -q+G )


     G cutoff =  533.5359  (    648 G-vectors)     FFT grid: ( 36, 36, 36)
     G cutoff =  426.8287  (    463 G-vectors)  smooth grid: ( 32, 32, 32)
     number of k points=   728

     PseudoPot. # 1 for Si read from file:
     ../Pseudo/Si.pbe-rrkj.UPF
     MD5 check sum: cf7ab5690cd9a85b22c4813f7e365554
     Pseudo is Norm-conserving, Zval =  4.0
     Generated by new atomic code, or converted to UPF format
     Using radial grid of  883 points,  3 beta functions with: 
                l(1) =   0
                l(2) =   0
                l(3) =   1

     Mode symmetry, C_3v (3m)   point group:


     Atomic displacements:
     There are    4 irreducible representations

     Representation     1      1 modes -  To be done

     Representation     2      1 modes -  To be done

     Representation     3      2 modes -  To be done

     Representation     4      2 modes -  To be done



     Alpha used in Ewald sum =   2.1000
     PHONON       :   6m 3.93s CPU   6m28.87s WALL



     Representation #   1 mode #   1

     Self-consistent Calculation

      iter #   1 total cpu time :   392.1 secs   av.it.:   6.2
      thresh= 1.000E-02 alpha_mix =  0.700 |ddv_scf|^2 =  4.787E-05

      iter #   2 total cpu time :   396.1 secs   av.it.:   9.6
      thresh= 6.919E-04 alpha_mix =  0.700 |ddv_scf|^2 =  2.247E-04

      iter #   3 total cpu time :   399.7 secs   av.it.:   8.3
      thresh= 1.499E-03 alpha_mix =  0.700 |ddv_scf|^2 =  1.737E-07

      iter #   4 total cpu time :   403.8 secs   av.it.:   9.2
      thresh= 4.167E-05 alpha_mix =  0.700 |ddv_scf|^2 =  1.460E-09

      iter #   5 total cpu time :   407.8 secs   av.it.:   9.4
      thresh= 3.820E-06 alpha_mix =  0.700 |ddv_scf|^2 =  6.375E-11

      iter #   6 total cpu time :   411.6 secs   av.it.:   9.7
      thresh= 7.984E-07 alpha_mix =  0.700 |ddv_scf|^2 =  7.164E-12

      iter #   7 total cpu time :   415.8 secs   av.it.:   9.6
      thresh= 2.677E-07 alpha_mix =  0.700 |ddv_scf|^2 =  2.700E-14

      iter #   8 total cpu time :   419.8 secs   av.it.:   9.6
      thresh= 1.643E-08 alpha_mix =  0.700 |ddv_scf|^2 =  6.226E-14

      iter #   9 total cpu time :   423.4 secs   av.it.:   8.5
      thresh= 2.495E-08 alpha_mix =  0.700 |ddv_scf|^2 =  7.110E-16

      iter #  10 total cpu time :   427.3 secs   av.it.:   9.4
      thresh= 2.667E-09 alpha_mix =  0.700 |ddv_scf|^2 =  1.889E-16

      iter #  11 total cpu time :   431.0 secs   av.it.:   9.0
      thresh= 1.374E-09 alpha_mix =  0.700 |ddv_scf|^2 =  1.717E-17

      iter #  12 total cpu time :   434.9 secs   av.it.:   9.1
      thresh= 4.144E-10 alpha_mix =  0.700 |ddv_scf|^2 =  1.033E-18

      iter #  13 total cpu time :   438.9 secs   av.it.:   9.3
      thresh= 1.016E-10 alpha_mix =  0.700 |ddv_scf|^2 =  1.358E-19

      iter #  14 total cpu time :   443.2 secs   av.it.:   9.3
      thresh= 3.686E-11 alpha_mix =  0.700 |ddv_scf|^2 =  1.567E-20

      iter #  15 total cpu time :   447.2 secs   av.it.:   9.4
      thresh= 1.252E-11 alpha_mix =  0.700 |ddv_scf|^2 =  2.789E-21

     End of self-consistent calculation

     Convergence has been achieved 


     Representation #   2 mode #   2

     Self-consistent Calculation

      iter #   1 total cpu time :   450.1 secs   av.it.:   6.2
      thresh= 1.000E-02 alpha_mix =  0.700 |ddv_scf|^2 =  4.787E-05

      iter #   2 total cpu time :   454.3 secs   av.it.:   9.6
      thresh= 6.919E-04 alpha_mix =  0.700 |ddv_scf|^2 =  2.247E-04

      iter #   3 total cpu time :   458.1 secs   av.it.:   8.3
      thresh= 1.499E-03 alpha_mix =  0.700 |ddv_scf|^2 =  1.737E-07

      iter #   4 total cpu time :   462.0 secs   av.it.:   9.2
      thresh= 4.167E-05 alpha_mix =  0.700 |ddv_scf|^2 =  1.460E-09

      iter #   5 total cpu time :   465.9 secs   av.it.:   9.4
      thresh= 3.821E-06 alpha_mix =  0.700 |ddv_scf|^2 =  6.374E-11

      iter #   6 total cpu time :   470.2 secs   av.it.:   9.7
      thresh= 7.983E-07 alpha_mix =  0.700 |ddv_scf|^2 =  7.163E-12

      iter #   7 total cpu time :   474.1 secs   av.it.:   9.6
      thresh= 2.676E-07 alpha_mix =  0.700 |ddv_scf|^2 =  7.274E-14

      iter #   8 total cpu time :   477.9 secs   av.it.:   9.3
      thresh= 2.697E-08 alpha_mix =  0.700 |ddv_scf|^2 =  6.312E-14

      iter #   9 total cpu time :   481.7 secs   av.it.:   8.5
      thresh= 2.512E-08 alpha_mix =  0.700 |ddv_scf|^2 =  5.842E-16

      iter #  10 total cpu time :   485.8 secs   av.it.:   9.4
      thresh= 2.417E-09 alpha_mix =  0.700 |ddv_scf|^2 =  1.143E-16

      iter #  11 total cpu time :   489.5 secs   av.it.:   9.1
      thresh= 1.069E-09 alpha_mix =  0.700 |ddv_scf|^2 =  2.073E-17

      iter #  12 total cpu time :   493.3 secs   av.it.:   8.9
      thresh= 4.553E-10 alpha_mix =  0.700 |ddv_scf|^2 =  1.302E-18

      iter #  13 total cpu time :   497.3 secs   av.it.:   9.2
      thresh= 1.141E-10 alpha_mix =  0.700 |ddv_scf|^2 =  1.283E-19

      iter #  14 total cpu time :   501.2 secs   av.it.:   9.3
      thresh= 3.582E-11 alpha_mix =  0.700 |ddv_scf|^2 =  2.805E-20

      iter #  15 total cpu time :   505.3 secs   av.it.:   9.3
      thresh= 1.675E-11 alpha_mix =  0.700 |ddv_scf|^2 =  8.557E-21

     End of self-consistent calculation

     Convergence has been achieved 


     Representation #   3 modes #   3   4

     Self-consistent Calculation

      iter #   1 total cpu time :   511.2 secs   av.it.:   6.0
      thresh= 1.000E-02 alpha_mix =  0.700 |ddv_scf|^2 =  8.335E-08

      iter #   2 total cpu time :   520.4 secs   av.it.:  11.1
      thresh= 2.887E-05 alpha_mix =  0.700 |ddv_scf|^2 =  6.138E-09

      iter #   3 total cpu time :   529.6 secs   av.it.:  10.8
      thresh= 7.835E-06 alpha_mix =  0.700 |ddv_scf|^2 =  1.012E-10

      iter #   4 total cpu time :   538.1 secs   av.it.:  10.4
      thresh= 1.006E-06 alpha_mix =  0.700 |ddv_scf|^2 =  2.835E-12

      iter #   5 total cpu time :   547.0 secs   av.it.:  10.6
      thresh= 1.684E-07 alpha_mix =  0.700 |ddv_scf|^2 =  8.987E-15

      iter #   6 total cpu time :   555.5 secs   av.it.:  10.6
      thresh= 9.480E-09 alpha_mix =  0.700 |ddv_scf|^2 =  2.508E-16

      iter #   7 total cpu time :   563.9 secs   av.it.:  10.4
      thresh= 1.584E-09 alpha_mix =  0.700 |ddv_scf|^2 =  3.131E-18

      iter #   8 total cpu time :   572.8 secs   av.it.:  10.6
      thresh= 1.769E-10 alpha_mix =  0.700 |ddv_scf|^2 =  9.577E-20

      iter #   9 total cpu time :   581.9 secs   av.it.:  11.0
      thresh= 3.095E-11 alpha_mix =  0.700 |ddv_scf|^2 =  3.963E-21

     End of self-consistent calculation

     Convergence has been achieved 


     Representation #   4 modes #   5   6

     Self-consistent Calculation

      iter #   1 total cpu time :   587.6 secs   av.it.:   5.7
      thresh= 1.000E-02 alpha_mix =  0.700 |ddv_scf|^2 =  8.333E-08

      iter #   2 total cpu time :   596.4 secs   av.it.:  11.0
      thresh= 2.887E-05 alpha_mix =  0.700 |ddv_scf|^2 =  6.129E-09

      iter #   3 total cpu time :   605.0 secs   av.it.:  10.6
      thresh= 7.829E-06 alpha_mix =  0.700 |ddv_scf|^2 =  1.012E-10

      iter #   4 total cpu time :   613.8 secs   av.it.:  10.2
      thresh= 1.006E-06 alpha_mix =  0.700 |ddv_scf|^2 =  2.834E-12

      iter #   5 total cpu time :   622.3 secs   av.it.:  10.4
      thresh= 1.683E-07 alpha_mix =  0.700 |ddv_scf|^2 =  8.979E-15

      iter #   6 total cpu time :   631.3 secs   av.it.:  10.5
      thresh= 9.476E-09 alpha_mix =  0.700 |ddv_scf|^2 =  2.513E-16

      iter #   7 total cpu time :   640.1 secs   av.it.:  10.2
      thresh= 1.585E-09 alpha_mix =  0.700 |ddv_scf|^2 =  3.057E-18

      iter #   8 total cpu time :   648.8 secs   av.it.:  10.5
      thresh= 1.748E-10 alpha_mix =  0.700 |ddv_scf|^2 =  9.719E-20

      iter #   9 total cpu time :   657.8 secs   av.it.:  10.8
      thresh= 3.117E-11 alpha_mix =  0.700 |ddv_scf|^2 =  3.901E-21

     End of self-consistent calculation

     Convergence has been achieved 
 
     Number of q in the star =    8
     List of q in the star:
          1  -0.400000000   0.400000000  -0.400000000
          2  -0.400000000   0.400000000   0.400000000
          3   0.400000000   0.400000000  -0.400000000
          4   0.400000000   0.400000000   0.400000000
          5   0.400000000  -0.400000000   0.400000000
          6  -0.400000000  -0.400000000  -0.400000000
          7   0.400000000  -0.400000000  -0.400000000
          8  -0.400000000  -0.400000000   0.400000000

     Diagonalizing the dynamical matrix

     q = (   -0.400000000   0.400000000  -0.400000000 ) 

 **************************************************************************
     freq (    1) =       3.215108 [THz] =     107.244464 [cm-1]
     freq (    2) =       3.215108 [THz] =     107.244464 [cm-1]
     freq (    3) =      10.011470 [THz] =     333.946702 [cm-1]
     freq (    4) =      13.143989 [THz] =     438.436271 [cm-1]
     freq (    5) =      14.615501 [THz] =     487.520626 [cm-1]
     freq (    6) =      14.615501 [THz] =     487.520626 [cm-1]
 **************************************************************************

     Mode symmetry, C_3v (3m)   point group:

     freq (   1-   2) =        107.2  [cm-1]   --> E    L_3           
     freq (   3-   3) =        333.9  [cm-1]   --> A_1  L_1           
     freq (   4-   4) =        438.4  [cm-1]   --> A_1  L_1           
     freq (   5-   6) =        487.5  [cm-1]   --> E    L_3           

     Calculation of q =    0.0000000   0.4000000   0.0000000
 
     Parallelization info
     --------------------
     sticks:   dense  smooth     PW     G-vecs:    dense   smooth      PW
     Min          36      29      9                  646      462      89
     Max          37      30     10                  648      465      91
     Sum         733     583    199                12939     9257    1807
 


     bravais-lattice index     =            2
     lattice parameter (alat)  =      10.2623  a.u.
     unit-cell volume          =     270.1967 (a.u.)^3
     number of atoms/cell      =            2
     number of atomic types    =            1
     number of electrons       =         8.00
     number of Kohn-Sham states=            4
     kinetic-energy cutoff     =      40.0000  Ry
     charge density cutoff     =     200.0000  Ry
     Exchange-correlation= PBE
                           (   1   4   3   4   0   0   0)

     celldm(1)=  10.262347  celldm(2)=   0.000000  celldm(3)=   0.000000
     celldm(4)=   0.000000  celldm(5)=   0.000000  celldm(6)=   0.000000

     crystal axes: (cart. coord. in units of alat)
               a(1) = (  -0.500000   0.000000   0.500000 )  
               a(2) = (   0.000000   0.500000   0.500000 )  
               a(3) = (  -0.500000   0.500000   0.000000 )  

     reciprocal axes: (cart. coord. in units 2 pi/alat)
               b(1) = ( -1.000000 -1.000000  1.000000 )  
               b(2) = (  1.000000  1.000000  1.000000 )  
               b(3) = ( -1.000000  1.000000 -1.000000 )  


     PseudoPot. # 1 for Si read from file:
     ../Pseudo/Si.pbe-rrkj.UPF
     MD5 check sum: cf7ab5690cd9a85b22c4813f7e365554
     Pseudo is Norm-conserving, Zval =  4.0
     Generated by new atomic code, or converted to UPF format
     Using radial grid of  883 points,  3 beta functions with: 
                l(1) =   0
                l(2) =   0
                l(3) =   1

     atomic species   valence    mass     pseudopotential
        Si             4.00    28.08600     Si( 1.00)

     48 Sym. Ops., with inversion, found



   Cartesian axes

     site n.     atom                  positions (alat units)
         1           Si  tau(   1) = (   0.0000000   0.0000000   0.0000000  )
         2           Si  tau(   2) = (  -0.2500000   0.2500000   0.2500000  )

     number of k points=   588

     Number of k-points >= 100: set verbosity='high' to print them.

     Dense  grid:    12939 G-vectors     FFT dimensions: (  36,  36,  36)

     Smooth grid:     9257 G-vectors     FFT dimensions: (  32,  32,  32)

     Estimated max dynamical RAM per process >       0.50 MB

     Estimated total dynamical RAM >       9.97 MB

     The potential is recalculated from file :
     ./_ph0/Silicon.save/charge-density

     Starting wfcs are    8 atomic wfcs

     Band Structure Calculation
     Davidson diagonalization with overlap

     ethr =  1.25E-10,  avg # of iterations = 12.3

     total cpu time spent up to now is       92.7 secs

     End of band structure calculation

     Number of k-points >= 100: set verbosity='high' to print the bands.

     highest occupied level (ev):     6.2271

     Writing output data file ./_ph0/Silicon.save/

                                                                                

     bravais-lattice index     =            2
     lattice parameter (alat)  =      10.2623  a.u.
     unit-cell volume          =     270.1967 (a.u.)^3
     number of atoms/cell      =            2
     number of atomic types    =            1
     kinetic-energy cut-off    =      40.0000  Ry
     charge density cut-off    =     200.0000  Ry
     convergence threshold     =      1.0E-20
     beta                      =       0.7000
     number of iterations used =            4
     Exchange-correlation= PBE
                           (   1   4   3   4   0   0   0)


     celldm(1)=   10.26235  celldm(2)=    0.00000  celldm(3)=    0.00000
     celldm(4)=    0.00000  celldm(5)=    0.00000  celldm(6)=    0.00000

     crystal axes: (cart. coord. in units of alat)
               a(1) = ( -0.5000  0.0000  0.5000 )  
               a(2) = (  0.0000  0.5000  0.5000 )  
               a(3) = ( -0.5000  0.5000  0.0000 )  

     reciprocal axes: (cart. coord. in units 2 pi/alat)
               b(1) = ( -1.0000 -1.0000  1.0000 )  
               b(2) = (  1.0000  1.0000  1.0000 )  
               b(3) = ( -1.0000  1.0000 -1.0000 )  


     Atoms inside the unit cell: 

     Cartesian axes

     site n.  atom      mass           positions (alat units)
        1     Si  28.0860   tau(    1) = (    0.00000    0.00000    0.00000  )
        2     Si  28.0860   tau(    2) = (   -0.25000    0.25000    0.25000  )

     Computing dynamical matrix for 
                    q = (   0.0000000   0.4000000   0.0000000 )
 
      8 Sym.Ops. (no q -> -q+G )


     G cutoff =  533.5359  (    648 G-vectors)     FFT grid: ( 36, 36, 36)
     G cutoff =  426.8287  (    463 G-vectors)  smooth grid: ( 32, 32, 32)
     number of k points=   588

     PseudoPot. # 1 for Si read from file:
     ../Pseudo/Si.pbe-rrkj.UPF
     MD5 check sum: cf7ab5690cd9a85b22c4813f7e365554
     Pseudo is Norm-conserving, Zval =  4.0
     Generated by new atomic code, or converted to UPF format
     Using radial grid of  883 points,  3 beta functions with: 
                l(1) =   0
                l(2) =   0
                l(3) =   1

     Mode symmetry, C_4v (4mm)  point group:


     Atomic displacements:
     There are    4 irreducible representations

     Representation     1      1 modes -  To be done

     Representation     2      1 modes -  To be done

     Representation     3      2 modes -  To be done

     Representation     4      2 modes -  To be done



     Alpha used in Ewald sum =   2.1000
     PHONON       :  10m38.86s CPU  11m23.97s WALL



     Representation #   1 mode #   1

     Self-consistent Calculation

      iter #   1 total cpu time :   686.5 secs   av.it.:   6.3
      thresh= 1.000E-02 alpha_mix =  0.700 |ddv_scf|^2 =  1.067E-03

      iter #   2 total cpu time :   689.5 secs   av.it.:   8.6
      thresh= 3.266E-03 alpha_mix =  0.700 |ddv_scf|^2 =  2.229E-02

      iter #   3 total cpu time :   692.2 secs   av.it.:   7.3
      thresh= 1.000E-02 alpha_mix =  0.700 |ddv_scf|^2 =  1.418E-08

      iter #   4 total cpu time :   695.5 secs   av.it.:   9.2
      thresh= 1.191E-05 alpha_mix =  0.700 |ddv_scf|^2 =  2.815E-09

      iter #   5 total cpu time :   698.3 secs   av.it.:   8.5
      thresh= 5.306E-06 alpha_mix =  0.700 |ddv_scf|^2 =  2.947E-11

      iter #   6 total cpu time :   701.4 secs   av.it.:   8.7
      thresh= 5.429E-07 alpha_mix =  0.700 |ddv_scf|^2 =  5.382E-14

      iter #   7 total cpu time :   704.3 secs   av.it.:   8.9
      thresh= 2.320E-08 alpha_mix =  0.700 |ddv_scf|^2 =  4.533E-14

      iter #   8 total cpu time :   707.3 secs   av.it.:   7.7
      thresh= 2.129E-08 alpha_mix =  0.700 |ddv_scf|^2 =  2.665E-15

      iter #   9 total cpu time :   709.8 secs   av.it.:   8.0
      thresh= 5.162E-09 alpha_mix =  0.700 |ddv_scf|^2 =  8.736E-18

      iter #  10 total cpu time :   713.0 secs   av.it.:   8.6
      thresh= 2.956E-10 alpha_mix =  0.700 |ddv_scf|^2 =  6.679E-19

      iter #  11 total cpu time :   715.7 secs   av.it.:   8.1
      thresh= 8.173E-11 alpha_mix =  0.700 |ddv_scf|^2 =  6.126E-21

     End of self-consistent calculation

     Convergence has been achieved 


     Representation #   2 mode #   2

     Self-consistent Calculation

      iter #   1 total cpu time :   718.2 secs   av.it.:   5.5
      thresh= 1.000E-02 alpha_mix =  0.700 |ddv_scf|^2 =  5.199E-07

      iter #   2 total cpu time :   721.4 secs   av.it.:   9.7
      thresh= 7.211E-05 alpha_mix =  0.700 |ddv_scf|^2 =  8.020E-08

      iter #   3 total cpu time :   724.9 secs   av.it.:   9.4
      thresh= 2.832E-05 alpha_mix =  0.700 |ddv_scf|^2 =  1.010E-09

      iter #   4 total cpu time :   728.1 secs   av.it.:   9.4
      thresh= 3.179E-06 alpha_mix =  0.700 |ddv_scf|^2 =  7.319E-11

      iter #   5 total cpu time :   731.1 secs   av.it.:   9.0
      thresh= 8.555E-07 alpha_mix =  0.700 |ddv_scf|^2 =  1.202E-13

      iter #   6 total cpu time :   734.4 secs   av.it.:   9.1
      thresh= 3.468E-08 alpha_mix =  0.700 |ddv_scf|^2 =  3.533E-15

      iter #   7 total cpu time :   737.5 secs   av.it.:   9.1
      thresh= 5.944E-09 alpha_mix =  0.700 |ddv_scf|^2 =  2.109E-17

      iter #   8 total cpu time :   741.0 secs   av.it.:   9.2
      thresh= 4.592E-10 alpha_mix =  0.700 |ddv_scf|^2 =  5.090E-19

      iter #   9 total cpu time :   744.2 secs   av.it.:   9.3
      thresh= 7.135E-11 alpha_mix =  0.700 |ddv_scf|^2 =  2.321E-20

      iter #  10 total cpu time :   747.5 secs   av.it.:   9.5
      thresh= 1.523E-11 alpha_mix =  0.700 |ddv_scf|^2 =  9.714E-22

     End of self-consistent calculation

     Convergence has been achieved 


     Representation #   3 modes #   3   4

     Self-consistent Calculation

      iter #   1 total cpu time :   752.3 secs   av.it.:   5.8
      thresh= 1.000E-02 alpha_mix =  0.700 |ddv_scf|^2 =  9.178E-08

      iter #   2 total cpu time :   759.4 secs   av.it.:  11.0
      thresh= 3.030E-05 alpha_mix =  0.700 |ddv_scf|^2 =  1.014E-08

      iter #   3 total cpu time :   766.6 secs   av.it.:  10.6
      thresh= 1.007E-05 alpha_mix =  0.700 |ddv_scf|^2 =  1.135E-10

      iter #   4 total cpu time :   773.5 secs   av.it.:  10.1
      thresh= 1.065E-06 alpha_mix =  0.700 |ddv_scf|^2 =  4.634E-12

      iter #   5 total cpu time :   780.1 secs   av.it.:  10.0
      thresh= 2.153E-07 alpha_mix =  0.700 |ddv_scf|^2 =  7.619E-15

      iter #   6 total cpu time :   786.9 secs   av.it.:  10.6
      thresh= 8.729E-09 alpha_mix =  0.700 |ddv_scf|^2 =  5.224E-17

      iter #   7 total cpu time :   793.8 secs   av.it.:  10.5
      thresh= 7.227E-10 alpha_mix =  0.700 |ddv_scf|^2 =  2.411E-18

      iter #   8 total cpu time :   801.3 secs   av.it.:  10.9
      thresh= 1.553E-10 alpha_mix =  0.700 |ddv_scf|^2 =  3.558E-20

      iter #   9 total cpu time :   808.4 secs   av.it.:  10.8
      thresh= 1.886E-11 alpha_mix =  0.700 |ddv_scf|^2 =  2.171E-21

     End of self-consistent calculation

     Convergence has been achieved 


     Representation #   4 modes #   5   6

     Self-consistent Calculation

      iter #   1 total cpu time :   813.1 secs   av.it.:   6.0
      thresh= 1.000E-02 alpha_mix =  0.700 |ddv_scf|^2 =  1.261E-07

      iter #   2 total cpu time :   820.2 secs   av.it.:  11.0
      thresh= 3.551E-05 alpha_mix =  0.700 |ddv_scf|^2 =  1.454E-08

      iter #   3 total cpu time :   827.2 secs   av.it.:  10.7
      thresh= 1.206E-05 alpha_mix =  0.700 |ddv_scf|^2 =  1.124E-10

      iter #   4 total cpu time :   834.0 secs   av.it.:  10.1
      thresh= 1.060E-06 alpha_mix =  0.700 |ddv_scf|^2 =  2.841E-12

      iter #   5 total cpu time :   840.9 secs   av.it.:  10.1
      thresh= 1.686E-07 alpha_mix =  0.700 |ddv_scf|^2 =  7.502E-15

      iter #   6 total cpu time :   848.1 secs   av.it.:  10.7
      thresh= 8.662E-09 alpha_mix =  0.700 |ddv_scf|^2 =  5.212E-17

      iter #   7 total cpu time :   855.0 secs   av.it.:  10.4
      thresh= 7.219E-10 alpha_mix =  0.700 |ddv_scf|^2 =  2.504E-18

      iter #   8 total cpu time :   862.3 secs   av.it.:  10.9
      thresh= 1.583E-10 alpha_mix =  0.700 |ddv_scf|^2 =  4.168E-20

      iter #   9 total cpu time :   869.1 secs   av.it.:  10.8
      thresh= 2.042E-11 alpha_mix =  0.700 |ddv_scf|^2 =  2.433E-21

     End of self-consistent calculation

     Convergence has been achieved 
 
     Number of q in the star =    6
     List of q in the star:
          1   0.000000000   0.400000000   0.000000000
          2   0.000000000   0.000000000  -0.400000000
          3   0.000000000  -0.400000000   0.000000000
          4   0.000000000   0.000000000   0.400000000
          5   0.400000000   0.000000000   0.000000000
          6  -0.400000000   0.000000000   0.000000000

     Diagonalizing the dynamical matrix

     q = (    0.000000000   0.400000000   0.000000000 ) 

 **************************************************************************
     freq (    1) =       3.363885 [THz] =     112.207116 [cm-1]
     freq (    2) =       3.363885 [THz] =     112.207116 [cm-1]
     freq (    3) =       5.885260 [THz] =     196.311153 [cm-1]
     freq (    4) =      14.381397 [THz] =     479.711766 [cm-1]
     freq (    5) =      14.381397 [THz] =     479.711766 [cm-1]
     freq (    6) =      14.924287 [THz] =     497.820640 [cm-1]
 **************************************************************************

     Mode symmetry, C_4v (4mm)  point group:

     freq (   1-   2) =        112.2  [cm-1]   --> E    G_5 D_5       
     freq (   3-   3) =        196.3  [cm-1]   --> A_1  G_1 D_1       
     freq (   4-   5) =        479.7  [cm-1]   --> E    G_5 D_5       
     freq (   6-   6) =        497.8  [cm-1]   --> B_2  G_4 D_2'      

     Calculation of q =   -0.2000000   0.6000000  -0.2000000
 
     Parallelization info
     --------------------
     sticks:   dense  smooth     PW     G-vecs:    dense   smooth      PW
     Min          36      29      9                  646      462      93
     Max          37      30     10                  649      465      97
     Sum         733     583    199                12939     9257    1917
 


     bravais-lattice index     =            2
     lattice parameter (alat)  =      10.2623  a.u.
     unit-cell volume          =     270.1967 (a.u.)^3
     number of atoms/cell      =            2
     number of atomic types    =            1
     number of electrons       =         8.00
     number of Kohn-Sham states=            4
     kinetic-energy cutoff     =      40.0000  Ry
     charge density cutoff     =     200.0000  Ry
     Exchange-correlation= PBE
                           (   1   4   3   4   0   0   0)

     celldm(1)=  10.262347  celldm(2)=   0.000000  celldm(3)=   0.000000
     celldm(4)=   0.000000  celldm(5)=   0.000000  celldm(6)=   0.000000

     crystal axes: (cart. coord. in units of alat)
               a(1) = (  -0.500000   0.000000   0.500000 )  
               a(2) = (   0.000000   0.500000   0.500000 )  
               a(3) = (  -0.500000   0.500000   0.000000 )  

     reciprocal axes: (cart. coord. in units 2 pi/alat)
               b(1) = ( -1.000000 -1.000000  1.000000 )  
               b(2) = (  1.000000  1.000000  1.000000 )  
               b(3) = ( -1.000000  1.000000 -1.000000 )  


     PseudoPot. # 1 for Si read from file:
     ../Pseudo/Si.pbe-rrkj.UPF
     MD5 check sum: cf7ab5690cd9a85b22c4813f7e365554
     Pseudo is Norm-conserving, Zval =  4.0
     Generated by new atomic code, or converted to UPF format
     Using radial grid of  883 points,  3 beta functions with: 
                l(1) =   0
                l(2) =   0
                l(3) =   1

     atomic species   valence    mass     pseudopotential
        Si             4.00    28.08600     Si( 1.00)

     48 Sym. Ops., with inversion, found



   Cartesian axes

     site n.     atom                  positions (alat units)
         1           Si  tau(   1) = (   0.0000000   0.0000000   0.0000000  )
         2           Si  tau(   2) = (  -0.2500000   0.2500000   0.2500000  )

     number of k points=  1872

     Number of k-points >= 100: set verbosity='high' to print them.

     Dense  grid:    12939 G-vectors     FFT dimensions: (  36,  36,  36)

     Smooth grid:     9257 G-vectors     FFT dimensions: (  32,  32,  32)

     Estimated max dynamical RAM per process >       0.50 MB

     Estimated total dynamical RAM >      10.02 MB

     The potential is recalculated from file :
     ./_ph0/Silicon.save/charge-density

     Starting wfcs are    8 atomic wfcs

     Band Structure Calculation
     Davidson diagonalization with overlap

     ethr =  1.25E-10,  avg # of iterations = 12.3

     total cpu time spent up to now is      181.8 secs

     End of band structure calculation

     Number of k-points >= 100: set verbosity='high' to print the bands.

     highest occupied level (ev):     6.2271

     Writing output data file ./_ph0/Silicon.save/

                                                                                

     bravais-lattice index     =            2
     lattice parameter (alat)  =      10.2623  a.u.
     unit-cell volume          =     270.1967 (a.u.)^3
     number of atoms/cell      =            2
     number of atomic types    =            1
     kinetic-energy cut-off    =      40.0000  Ry
     charge density cut-off    =     200.0000  Ry
     convergence threshold     =      1.0E-20
     beta                      =       0.7000
     number of iterations used =            4
     Exchange-correlation= PBE
                           (   1   4   3   4   0   0   0)


     celldm(1)=   10.26235  celldm(2)=    0.00000  celldm(3)=    0.00000
     celldm(4)=    0.00000  celldm(5)=    0.00000  celldm(6)=    0.00000

     crystal axes: (cart. coord. in units of alat)
               a(1) = ( -0.5000  0.0000  0.5000 )  
               a(2) = (  0.0000  0.5000  0.5000 )  
               a(3) = ( -0.5000  0.5000  0.0000 )  

     reciprocal axes: (cart. coord. in units 2 pi/alat)
               b(1) = ( -1.0000 -1.0000  1.0000 )  
               b(2) = (  1.0000  1.0000  1.0000 )  
               b(3) = ( -1.0000  1.0000 -1.0000 )  


     Atoms inside the unit cell: 

     Cartesian axes

     site n.  atom      mass           positions (alat units)
        1     Si  28.0860   tau(    1) = (    0.00000    0.00000    0.00000  )
        2     Si  28.0860   tau(    2) = (   -0.25000    0.25000    0.25000  )

     Computing dynamical matrix for 
                    q = (  -0.2000000   0.6000000  -0.2000000 )
 
      2 Sym.Ops. (no q -> -q+G )


     G cutoff =  533.5359  (    648 G-vectors)     FFT grid: ( 36, 36, 36)
     G cutoff =  426.8287  (    463 G-vectors)  smooth grid: ( 32, 32, 32)
     number of k points=  1872

     PseudoPot. # 1 for Si read from file:
     ../Pseudo/Si.pbe-rrkj.UPF
     MD5 check sum: cf7ab5690cd9a85b22c4813f7e365554
     Pseudo is Norm-conserving, Zval =  4.0
     Generated by new atomic code, or converted to UPF format
     Using radial grid of  883 points,  3 beta functions with: 
                l(1) =   0
                l(2) =   0
                l(3) =   1

     Mode symmetry, C_s (m)     point group:


     Atomic displacements:
     There are    6 irreducible representations

     Representation     1      1 modes -  To be done

     Representation     2      1 modes -  To be done

     Representation     3      1 modes -  To be done

     Representation     4      1 modes -  To be done

     Representation     5      1 modes -  To be done

     Representation     6      1 modes -  To be done



     Alpha used in Ewald sum =   2.1000
     PHONON       :  14m57.91s CPU  15m58.90s WALL



     Representation #   1 mode #   1

     Self-consistent Calculation

      iter #   1 total cpu time :   966.3 secs   av.it.:   6.3
      thresh= 1.000E-02 alpha_mix =  0.700 |ddv_scf|^2 =  5.291E-05

      iter #   2 total cpu time :   975.9 secs   av.it.:   9.7
      thresh= 7.274E-04 alpha_mix =  0.700 |ddv_scf|^2 =  3.303E-04

      iter #   3 total cpu time :   984.4 secs   av.it.:   8.3
      thresh= 1.817E-03 alpha_mix =  0.700 |ddv_scf|^2 =  1.834E-07

      iter #   4 total cpu time :   994.1 secs   av.it.:   9.6
      thresh= 4.283E-05 alpha_mix =  0.700 |ddv_scf|^2 =  1.804E-09

      iter #   5 total cpu time :  1004.1 secs   av.it.:   9.8
      thresh= 4.247E-06 alpha_mix =  0.700 |ddv_scf|^2 =  1.104E-10

      iter #   6 total cpu time :  1014.1 secs   av.it.:  10.0
      thresh= 1.051E-06 alpha_mix =  0.700 |ddv_scf|^2 =  1.455E-11

      iter #   7 total cpu time :  1024.2 secs   av.it.:   9.7
      thresh= 3.815E-07 alpha_mix =  0.700 |ddv_scf|^2 =  9.805E-13

      iter #   8 total cpu time :  1034.4 secs   av.it.:   9.3
      thresh= 9.902E-08 alpha_mix =  0.700 |ddv_scf|^2 =  1.142E-12

      iter #   9 total cpu time :  1043.9 secs   av.it.:   8.8
      thresh= 1.069E-07 alpha_mix =  0.700 |ddv_scf|^2 =  2.362E-13

      iter #  10 total cpu time :  1053.0 secs   av.it.:   8.6
      thresh= 4.860E-08 alpha_mix =  0.700 |ddv_scf|^2 =  3.626E-15

      iter #  11 total cpu time :  1063.1 secs   av.it.:   9.6
      thresh= 6.021E-09 alpha_mix =  0.700 |ddv_scf|^2 =  4.948E-16

      iter #  12 total cpu time :  1073.1 secs   av.it.:   9.6
      thresh= 2.225E-09 alpha_mix =  0.700 |ddv_scf|^2 =  3.267E-17

      iter #  13 total cpu time :  1083.1 secs   av.it.:   9.9
      thresh= 5.716E-10 alpha_mix =  0.700 |ddv_scf|^2 =  3.431E-18

      iter #  14 total cpu time :  1093.3 secs   av.it.:  10.0
      thresh= 1.852E-10 alpha_mix =  0.700 |ddv_scf|^2 =  8.947E-18

      iter #  15 total cpu time :  1103.1 secs   av.it.:   8.5
      thresh= 2.991E-10 alpha_mix =  0.700 |ddv_scf|^2 =  9.352E-19

      iter #  16 total cpu time :  1113.5 secs   av.it.:   9.4
      thresh= 9.671E-11 alpha_mix =  0.700 |ddv_scf|^2 =  6.894E-19

      iter #  17 total cpu time :  1123.4 secs   av.it.:   9.0
      thresh= 8.303E-11 alpha_mix =  0.700 |ddv_scf|^2 =  1.407E-20

      iter #  18 total cpu time :  1133.6 secs   av.it.:   9.8
      thresh= 1.186E-11 alpha_mix =  0.700 |ddv_scf|^2 =  5.335E-21

     End of self-consistent calculation

     Convergence has been achieved 


     Representation #   2 mode #   2

     Self-consistent Calculation

      iter #   1 total cpu time :  1141.5 secs   av.it.:   6.3
      thresh= 1.000E-02 alpha_mix =  0.700 |ddv_scf|^2 =  3.422E-05

      iter #   2 total cpu time :  1150.7 secs   av.it.:   9.7
      thresh= 5.850E-04 alpha_mix =  0.700 |ddv_scf|^2 =  2.082E-04

      iter #   3 total cpu time :  1160.2 secs   av.it.:   8.3
      thresh= 1.443E-03 alpha_mix =  0.700 |ddv_scf|^2 =  1.206E-07

      iter #   4 total cpu time :  1170.2 secs   av.it.:   9.7
      thresh= 3.473E-05 alpha_mix =  0.700 |ddv_scf|^2 =  2.304E-09

      iter #   5 total cpu time :  1180.4 secs   av.it.:   9.8
      thresh= 4.800E-06 alpha_mix =  0.700 |ddv_scf|^2 =  1.309E-10

      iter #   6 total cpu time :  1190.9 secs   av.it.:   9.8
      thresh= 1.144E-06 alpha_mix =  0.700 |ddv_scf|^2 =  1.197E-11

      iter #   7 total cpu time :  1201.7 secs   av.it.:   9.9
      thresh= 3.460E-07 alpha_mix =  0.700 |ddv_scf|^2 =  1.048E-12

      iter #   8 total cpu time :  1212.4 secs   av.it.:   9.8
      thresh= 1.024E-07 alpha_mix =  0.700 |ddv_scf|^2 =  2.451E-12

      iter #   9 total cpu time :  1222.1 secs   av.it.:   8.6
      thresh= 1.566E-07 alpha_mix =  0.700 |ddv_scf|^2 =  4.246E-13

      iter #  10 total cpu time :  1231.7 secs   av.it.:   8.9
      thresh= 6.516E-08 alpha_mix =  0.700 |ddv_scf|^2 =  2.488E-14

      iter #  11 total cpu time :  1241.3 secs   av.it.:   9.5
      thresh= 1.577E-08 alpha_mix =  0.700 |ddv_scf|^2 =  1.584E-15

      iter #  12 total cpu time :  1251.8 secs   av.it.:   9.6
      thresh= 3.980E-09 alpha_mix =  0.700 |ddv_scf|^2 =  7.554E-17

      iter #  13 total cpu time :  1262.4 secs   av.it.:   9.7
      thresh= 8.691E-10 alpha_mix =  0.700 |ddv_scf|^2 =  8.634E-18

      iter #  14 total cpu time :  1272.4 secs   av.it.:  10.0
      thresh= 2.938E-10 alpha_mix =  0.700 |ddv_scf|^2 =  1.618E-17

      iter #  15 total cpu time :  1282.3 secs   av.it.:   8.8
      thresh= 4.022E-10 alpha_mix =  0.700 |ddv_scf|^2 =  3.754E-18

      iter #  16 total cpu time :  1291.7 secs   av.it.:   8.9
      thresh= 1.938E-10 alpha_mix =  0.700 |ddv_scf|^2 =  1.308E-18

      iter #  17 total cpu time :  1301.5 secs   av.it.:   9.3
      thresh= 1.143E-10 alpha_mix =  0.700 |ddv_scf|^2 =  4.744E-20

      iter #  18 total cpu time :  1311.4 secs   av.it.:   9.7
      thresh= 2.178E-11 alpha_mix =  0.700 |ddv_scf|^2 =  7.359E-21

     End of self-consistent calculation

     Convergence has been achieved 


     Representation #   3 mode #   3

     Self-consistent Calculation

      iter #   1 total cpu time :  1319.5 secs   av.it.:   6.2
      thresh= 1.000E-02 alpha_mix =  0.700 |ddv_scf|^2 =  2.558E-05

      iter #   2 total cpu time :  1330.4 secs   av.it.:   9.7
      thresh= 5.057E-04 alpha_mix =  0.700 |ddv_scf|^2 =  1.587E-04

      iter #   3 total cpu time :  1340.2 secs   av.it.:   8.3
      thresh= 1.260E-03 alpha_mix =  0.700 |ddv_scf|^2 =  1.515E-07

      iter #   4 total cpu time :  1350.2 secs   av.it.:   9.6
      thresh= 3.892E-05 alpha_mix =  0.700 |ddv_scf|^2 =  1.810E-09

      iter #   5 total cpu time :  1360.3 secs   av.it.:   9.8
      thresh= 4.255E-06 alpha_mix =  0.700 |ddv_scf|^2 =  1.831E-10

      iter #   6 total cpu time :  1370.4 secs   av.it.:   9.8
      thresh= 1.353E-06 alpha_mix =  0.700 |ddv_scf|^2 =  1.291E-11

      iter #   7 total cpu time :  1380.7 secs   av.it.:   9.6
      thresh= 3.594E-07 alpha_mix =  0.700 |ddv_scf|^2 =  1.105E-13

      iter #   8 total cpu time :  1390.7 secs   av.it.:  10.0
      thresh= 3.324E-08 alpha_mix =  0.700 |ddv_scf|^2 =  1.775E-13

      iter #   9 total cpu time :  1400.3 secs   av.it.:   8.8
      thresh= 4.213E-08 alpha_mix =  0.700 |ddv_scf|^2 =  2.060E-14

      iter #  10 total cpu time :  1409.9 secs   av.it.:   9.2
      thresh= 1.435E-08 alpha_mix =  0.700 |ddv_scf|^2 =  4.739E-15

      iter #  11 total cpu time :  1419.4 secs   av.it.:   9.0
      thresh= 6.884E-09 alpha_mix =  0.700 |ddv_scf|^2 =  2.012E-16

      iter #  12 total cpu time :  1429.2 secs   av.it.:   9.5
      thresh= 1.418E-09 alpha_mix =  0.700 |ddv_scf|^2 =  2.292E-17

      iter #  13 total cpu time :  1440.0 secs   av.it.:   9.8
      thresh= 4.788E-10 alpha_mix =  0.700 |ddv_scf|^2 =  1.109E-18

      iter #  14 total cpu time :  1450.1 secs   av.it.:   9.9
      thresh= 1.053E-10 alpha_mix =  0.700 |ddv_scf|^2 =  2.149E-19

      iter #  15 total cpu time :  1463.0 secs   av.it.:   9.5
      thresh= 4.636E-11 alpha_mix =  0.700 |ddv_scf|^2 =  1.803E-19

      iter #  16 total cpu time :  1472.7 secs   av.it.:   8.9
      thresh= 4.246E-11 alpha_mix =  0.700 |ddv_scf|^2 =  2.573E-20

      iter #  17 total cpu time :  1482.4 secs   av.it.:   9.2
      thresh= 1.604E-11 alpha_mix =  0.700 |ddv_scf|^2 =  5.724E-21

     End of self-consistent calculation

     Convergence has been achieved 


     Representation #   4 mode #   4

     Self-consistent Calculation

      iter #   1 total cpu time :  1490.4 secs   av.it.:   6.0
      thresh= 1.000E-02 alpha_mix =  0.700 |ddv_scf|^2 =  6.893E-06

      iter #   2 total cpu time :  1501.4 secs   av.it.:   9.9
      thresh= 2.626E-04 alpha_mix =  0.700 |ddv_scf|^2 =  3.675E-05

      iter #   3 total cpu time :  1510.1 secs   av.it.:   8.3
      thresh= 6.062E-04 alpha_mix =  0.700 |ddv_scf|^2 =  1.380E-07

      iter #   4 total cpu time :  1520.4 secs   av.it.:   9.6
      thresh= 3.715E-05 alpha_mix =  0.700 |ddv_scf|^2 =  1.544E-09

      iter #   5 total cpu time :  1531.3 secs   av.it.:   9.8
      thresh= 3.930E-06 alpha_mix =  0.700 |ddv_scf|^2 =  1.905E-10

      iter #   6 total cpu time :  1541.3 secs   av.it.:   9.9
      thresh= 1.380E-06 alpha_mix =  0.700 |ddv_scf|^2 =  1.076E-11

      iter #   7 total cpu time :  1552.6 secs   av.it.:  10.0
      thresh= 3.280E-07 alpha_mix =  0.700 |ddv_scf|^2 =  5.682E-13

      iter #   8 total cpu time :  1564.9 secs   av.it.:   9.9
      thresh= 7.538E-08 alpha_mix =  0.700 |ddv_scf|^2 =  9.283E-13

      iter #   9 total cpu time :  1574.4 secs   av.it.:   8.5
      thresh= 9.635E-08 alpha_mix =  0.700 |ddv_scf|^2 =  1.334E-13

      iter #  10 total cpu time :  1584.8 secs   av.it.:   9.2
      thresh= 3.653E-08 alpha_mix =  0.700 |ddv_scf|^2 =  3.711E-14

      iter #  11 total cpu time :  1594.4 secs   av.it.:   9.1
      thresh= 1.926E-08 alpha_mix =  0.700 |ddv_scf|^2 =  1.972E-16

      iter #  12 total cpu time :  1605.3 secs   av.it.:  10.0
      thresh= 1.404E-09 alpha_mix =  0.700 |ddv_scf|^2 =  6.010E-17

      iter #  13 total cpu time :  1615.8 secs   av.it.:   9.7
      thresh= 7.753E-10 alpha_mix =  0.700 |ddv_scf|^2 =  2.411E-18

      iter #  14 total cpu time :  1626.3 secs   av.it.:  10.0
      thresh= 1.553E-10 alpha_mix =  0.700 |ddv_scf|^2 =  4.563E-19

      iter #  15 total cpu time :  1636.2 secs   av.it.:   9.7
      thresh= 6.755E-11 alpha_mix =  0.700 |ddv_scf|^2 =  9.559E-19

      iter #  16 total cpu time :  1645.9 secs   av.it.:   8.7
      thresh= 9.777E-11 alpha_mix =  0.700 |ddv_scf|^2 =  1.993E-19

      iter #  17 total cpu time :  1655.1 secs   av.it.:   8.7
      thresh= 4.465E-11 alpha_mix =  0.700 |ddv_scf|^2 =  5.624E-21

     End of self-consistent calculation

     Convergence has been achieved 


     Representation #   5 mode #   5

     Self-consistent Calculation

      iter #   1 total cpu time :  1662.7 secs   av.it.:   5.8
      thresh= 1.000E-02 alpha_mix =  0.700 |ddv_scf|^2 =  5.905E-07

      iter #   2 total cpu time :  1672.7 secs   av.it.:  10.0
      thresh= 7.684E-05 alpha_mix =  0.700 |ddv_scf|^2 =  9.398E-08

      iter #   3 total cpu time :  1685.2 secs   av.it.:   9.7
      thresh= 3.066E-05 alpha_mix =  0.700 |ddv_scf|^2 =  4.848E-10

      iter #   4 total cpu time :  1696.1 secs   av.it.:   9.1
      thresh= 2.202E-06 alpha_mix =  0.700 |ddv_scf|^2 =  1.208E-11

      iter #   5 total cpu time :  1705.4 secs   av.it.:   9.0
      thresh= 3.476E-07 alpha_mix =  0.700 |ddv_scf|^2 =  3.048E-14

      iter #   6 total cpu time :  1716.1 secs   av.it.:   9.6
      thresh= 1.746E-08 alpha_mix =  0.700 |ddv_scf|^2 =  3.767E-16

      iter #   7 total cpu time :  1726.6 secs   av.it.:   9.3
      thresh= 1.941E-09 alpha_mix =  0.700 |ddv_scf|^2 =  9.432E-18

      iter #   8 total cpu time :  1738.2 secs   av.it.:   9.9
      thresh= 3.071E-10 alpha_mix =  0.700 |ddv_scf|^2 =  2.063E-19

      iter #   9 total cpu time :  1749.9 secs   av.it.:  10.0
      thresh= 4.541E-11 alpha_mix =  0.700 |ddv_scf|^2 =  1.386E-20

      iter #  10 total cpu time :  1761.1 secs   av.it.:   9.8
      thresh= 1.177E-11 alpha_mix =  0.700 |ddv_scf|^2 =  6.518E-22

     End of self-consistent calculation

     Convergence has been achieved 


     Representation #   6 mode #   6

     Self-consistent Calculation

      iter #   1 total cpu time :  1769.0 secs   av.it.:   5.8
      thresh= 1.000E-02 alpha_mix =  0.700 |ddv_scf|^2 =  5.905E-07

      iter #   2 total cpu time :  1780.7 secs   av.it.:  10.0
      thresh= 7.684E-05 alpha_mix =  0.700 |ddv_scf|^2 =  9.398E-08

      iter #   3 total cpu time :  1791.9 secs   av.it.:   9.7
      thresh= 3.066E-05 alpha_mix =  0.700 |ddv_scf|^2 =  4.848E-10

      iter #   4 total cpu time :  1802.7 secs   av.it.:   9.1
      thresh= 2.202E-06 alpha_mix =  0.700 |ddv_scf|^2 =  1.208E-11

      iter #   5 total cpu time :  1813.3 secs   av.it.:   9.0
      thresh= 3.476E-07 alpha_mix =  0.700 |ddv_scf|^2 =  3.048E-14

      iter #   6 total cpu time :  1824.5 secs   av.it.:   9.6
      thresh= 1.746E-08 alpha_mix =  0.700 |ddv_scf|^2 =  3.770E-16

      iter #   7 total cpu time :  1835.4 secs   av.it.:   9.3
      thresh= 1.942E-09 alpha_mix =  0.700 |ddv_scf|^2 =  9.436E-18

      iter #   8 total cpu time :  1847.0 secs   av.it.:   9.9
      thresh= 3.072E-10 alpha_mix =  0.700 |ddv_scf|^2 =  2.061E-19

      iter #   9 total cpu time :  1858.6 secs   av.it.:  10.0
      thresh= 4.540E-11 alpha_mix =  0.700 |ddv_scf|^2 =  1.375E-20

      iter #  10 total cpu time :  1870.1 secs   av.it.:   9.8
      thresh= 1.173E-11 alpha_mix =  0.700 |ddv_scf|^2 =  6.491E-22

     End of self-consistent calculation

     Convergence has been achieved 
 
     Number of q in the star =   24
     List of q in the star:
          1  -0.200000000   0.600000000  -0.200000000
          2  -0.200000000   0.600000000   0.200000000
          3   0.200000000   0.600000000  -0.200000000
          4   0.200000000   0.600000000   0.200000000
          5  -0.200000000   0.200000000  -0.600000000
          6   0.200000000  -0.600000000   0.200000000
          7  -0.200000000  -0.600000000  -0.200000000
          8   0.200000000  -0.200000000   0.600000000
          9   0.200000000   0.200000000  -0.600000000
         10  -0.200000000  -0.200000000  -0.600000000
         11  -0.200000000   0.200000000   0.600000000
         12   0.600000000  -0.200000000  -0.200000000
         13  -0.600000000  -0.200000000   0.200000000
         14   0.600000000   0.200000000   0.200000000
         15   0.200000000  -0.600000000  -0.200000000
         16  -0.200000000  -0.200000000   0.600000000
         17   0.200000000   0.200000000   0.600000000
         18   0.200000000  -0.200000000  -0.600000000
         19  -0.600000000   0.200000000  -0.200000000
         20   0.600000000   0.200000000  -0.200000000
         21  -0.200000000  -0.600000000   0.200000000
         22  -0.600000000  -0.200000000  -0.200000000
         23   0.600000000  -0.200000000   0.200000000
         24  -0.600000000   0.200000000   0.200000000

     Diagonalizing the dynamical matrix

     q = (   -0.200000000   0.600000000  -0.200000000 ) 

 **************************************************************************
     freq (    1) =       3.914438 [THz] =     130.571584 [cm-1]
     freq (    2) =       5.133601 [THz] =     171.238501 [cm-1]
     freq (    3) =       8.427695 [THz] =     281.117641 [cm-1]
     freq (    4) =      13.265064 [THz] =     442.474923 [cm-1]
     freq (    5) =      14.088913 [THz] =     469.955543 [cm-1]
     freq (    6) =      14.413320 [THz] =     480.776611 [cm-1]
 **************************************************************************

     Mode symmetry, C_s (m)     point group:

     freq (   1-   1) =        130.6  [cm-1]   --> A''                
     freq (   2-   2) =        171.2  [cm-1]   --> A'                 
     freq (   3-   3) =        281.1  [cm-1]   --> A'                 
     freq (   4-   4) =        442.5  [cm-1]   --> A'                 
     freq (   5-   5) =        470.0  [cm-1]   --> A''                
     freq (   6-   6) =        480.8  [cm-1]   --> A'                 

     Calculation of q =    0.6000000  -0.2000000   0.6000000
 
     Parallelization info
     --------------------
     sticks:   dense  smooth     PW     G-vecs:    dense   smooth      PW
     Min          36      29     10                  646      462     103
     Max          37      30     11                  649      465     106
     Sum         733     583    211                12939     9257    2085
 


     bravais-lattice index     =            2
     lattice parameter (alat)  =      10.2623  a.u.
     unit-cell volume          =     270.1967 (a.u.)^3
     number of atoms/cell      =            2
     number of atomic types    =            1
     number of electrons       =         8.00
     number of Kohn-Sham states=            4
     kinetic-energy cutoff     =      40.0000  Ry
     charge density cutoff     =     200.0000  Ry
     Exchange-correlation= PBE
                           (   1   4   3   4   0   0   0)

     celldm(1)=  10.262347  celldm(2)=   0.000000  celldm(3)=   0.000000
     celldm(4)=   0.000000  celldm(5)=   0.000000  celldm(6)=   0.000000

     crystal axes: (cart. coord. in units of alat)
               a(1) = (  -0.500000   0.000000   0.500000 )  
               a(2) = (   0.000000   0.500000   0.500000 )  
               a(3) = (  -0.500000   0.500000   0.000000 )  

     reciprocal axes: (cart. coord. in units 2 pi/alat)
               b(1) = ( -1.000000 -1.000000  1.000000 )  
               b(2) = (  1.000000  1.000000  1.000000 )  
               b(3) = ( -1.000000  1.000000 -1.000000 )  


     PseudoPot. # 1 for Si read from file:
     ../Pseudo/Si.pbe-rrkj.UPF
     MD5 check sum: cf7ab5690cd9a85b22c4813f7e365554
     Pseudo is Norm-conserving, Zval =  4.0
     Generated by new atomic code, or converted to UPF format
     Using radial grid of  883 points,  3 beta functions with: 
                l(1) =   0
                l(2) =   0
                l(3) =   1

     atomic species   valence    mass     pseudopotential
        Si             4.00    28.08600     Si( 1.00)

     48 Sym. Ops., with inversion, found



   Cartesian axes

     site n.     atom                  positions (alat units)
         1           Si  tau(   1) = (   0.0000000   0.0000000   0.0000000  )
         2           Si  tau(   2) = (  -0.2500000   0.2500000   0.2500000  )

     number of k points=  1872

     Number of k-points >= 100: set verbosity='high' to print them.

     Dense  grid:    12939 G-vectors     FFT dimensions: (  36,  36,  36)

     Smooth grid:     9257 G-vectors     FFT dimensions: (  32,  32,  32)

     Estimated max dynamical RAM per process >       0.50 MB

     Estimated total dynamical RAM >      10.05 MB

     The potential is recalculated from file :
     ./_ph0/Silicon.save/charge-density

     Starting wfcs are    8 atomic wfcs

     Band Structure Calculation
     Davidson diagonalization with overlap

     ethr =  1.25E-10,  avg # of iterations = 12.2

     total cpu time spent up to now is      276.1 secs

     End of band structure calculation

     Number of k-points >= 100: set verbosity='high' to print the bands.

     highest occupied level (ev):     6.2271

     Writing output data file ./_ph0/Silicon.save/

                                                                                

     bravais-lattice index     =            2
     lattice parameter (alat)  =      10.2623  a.u.
     unit-cell volume          =     270.1967 (a.u.)^3
     number of atoms/cell      =            2
     number of atomic types    =            1
     kinetic-energy cut-off    =      40.0000  Ry
     charge density cut-off    =     200.0000  Ry
     convergence threshold     =      1.0E-20
     beta                      =       0.7000
     number of iterations used =            4
     Exchange-correlation= PBE
                           (   1   4   3   4   0   0   0)


     celldm(1)=   10.26235  celldm(2)=    0.00000  celldm(3)=    0.00000
     celldm(4)=    0.00000  celldm(5)=    0.00000  celldm(6)=    0.00000

     crystal axes: (cart. coord. in units of alat)
               a(1) = ( -0.5000  0.0000  0.5000 )  
               a(2) = (  0.0000  0.5000  0.5000 )  
               a(3) = ( -0.5000  0.5000  0.0000 )  

     reciprocal axes: (cart. coord. in units 2 pi/alat)
               b(1) = ( -1.0000 -1.0000  1.0000 )  
               b(2) = (  1.0000  1.0000  1.0000 )  
               b(3) = ( -1.0000  1.0000 -1.0000 )  


     Atoms inside the unit cell: 

     Cartesian axes

     site n.  atom      mass           positions (alat units)
        1     Si  28.0860   tau(    1) = (    0.00000    0.00000    0.00000  )
        2     Si  28.0860   tau(    2) = (   -0.25000    0.25000    0.25000  )

     Computing dynamical matrix for 
                    q = (   0.6000000  -0.2000000   0.6000000 )
 
      2 Sym.Ops. (no q -> -q+G )


     G cutoff =  533.5359  (    648 G-vectors)     FFT grid: ( 36, 36, 36)
     G cutoff =  426.8287  (    463 G-vectors)  smooth grid: ( 32, 32, 32)
     number of k points=  1872

     PseudoPot. # 1 for Si read from file:
     ../Pseudo/Si.pbe-rrkj.UPF
     MD5 check sum: cf7ab5690cd9a85b22c4813f7e365554
     Pseudo is Norm-conserving, Zval =  4.0
     Generated by new atomic code, or converted to UPF format
     Using radial grid of  883 points,  3 beta functions with: 
                l(1) =   0
                l(2) =   0
                l(3) =   1

     Mode symmetry, C_s (m)     point group:


     Atomic displacements:
     There are    6 irreducible representations

     Representation     1      1 modes -  To be done

     Representation     2      1 modes -  To be done

     Representation     3      1 modes -  To be done

     Representation     4      1 modes -  To be done

     Representation     5      1 modes -  To be done

     Representation     6      1 modes -  To be done



     Alpha used in Ewald sum =   2.1000
     PHONON       :  30m35.29s CPU  32m45.36s WALL



[...]
               b(2) = (  1.0000  1.0000  1.0000 )  
               b(3) = ( -1.0000  1.0000 -1.0000 )  


     Atoms inside the unit cell: 

     Cartesian axes

     site n.  atom      mass           positions (alat units)
        1     Si  28.0860   tau(    1) = (    0.00000    0.00000    0.00000  )
        2     Si  28.0860   tau(    2) = (   -0.25000    0.25000    0.25000  )

     Computing dynamical matrix for 
                    q = (   0.6000000  -0.2000000   1.0000000 )
 
      2 Sym.Ops. (no q -> -q+G )


     G cutoff =  533.5359  (    647 G-vectors)     FFT grid: ( 36, 36, 36)
     G cutoff =  426.8287  (    463 G-vectors)  smooth grid: ( 32, 32, 32)
     number of k points=  1872

     PseudoPot. # 1 for Si read from file:
     ../Pseudo/Si.pbe-rrkj.UPF
     MD5 check sum: cf7ab5690cd9a85b22c4813f7e365554
     Pseudo is Norm-conserving, Zval =  4.0
     Generated by new atomic code, or converted to UPF format
     Using radial grid of  883 points,  3 beta functions with: 
                l(1) =   0
                l(2) =   0
                l(3) =   1


     Atomic displacements:
     There are    6 irreducible representations

     Representation     1      1 modes -  To be done

     Representation     2      1 modes -  To be done

     Representation     3      1 modes -  To be done

     Representation     4      1 modes -  To be done

     Representation     5      1 modes -  To be done

     Representation     6      1 modes -  To be done



     Alpha used in Ewald sum =   2.1000
     PHONON       :      1h 4m CPU      1h 9m WALL



     Representation #   1 mode #   1

     Self-consistent Calculation

      iter #   1 total cpu time :  4169.8 secs   av.it.:   5.8
      thresh= 1.000E-02 alpha_mix =  0.700 |ddv_scf|^2 =  2.240E-06

      iter #   2 total cpu time :  4181.6 secs   av.it.:  10.0
      thresh= 1.497E-04 alpha_mix =  0.700 |ddv_scf|^2 =  3.680E-06

      iter #   3 total cpu time :  4192.5 secs   av.it.:   9.1
      thresh= 1.918E-04 alpha_mix =  0.700 |ddv_scf|^2 =  8.169E-08

      iter #   4 total cpu time :  4200.8 secs   av.it.:   9.3
      thresh= 2.858E-05 alpha_mix =  0.700 |ddv_scf|^2 =  5.087E-10

      iter #   5 total cpu time :  4211.5 secs   av.it.:   9.5
      thresh= 2.256E-06 alpha_mix =  0.700 |ddv_scf|^2 =  3.100E-11

      iter #   6 total cpu time :  4221.5 secs   av.it.:   9.4
      thresh= 5.568E-07 alpha_mix =  0.700 |ddv_scf|^2 =  5.012E-14

      iter #   7 total cpu time :  4232.2 secs   av.it.:   9.7
      thresh= 2.239E-08 alpha_mix =  0.700 |ddv_scf|^2 =  3.660E-15

      iter #   8 total cpu time :  4243.4 secs   av.it.:   9.7
      thresh= 6.050E-09 alpha_mix =  0.700 |ddv_scf|^2 =  2.094E-15

      iter #   9 total cpu time :  4254.0 secs   av.it.:   9.3
      thresh= 4.576E-09 alpha_mix =  0.700 |ddv_scf|^2 =  9.916E-16

      iter #  10 total cpu time :  4264.7 secs   av.it.:   9.2
      thresh= 3.149E-09 alpha_mix =  0.700 |ddv_scf|^2 =  2.476E-17

      iter #  11 total cpu time :  4276.2 secs   av.it.:   9.6
      thresh= 4.976E-10 alpha_mix =  0.700 |ddv_scf|^2 =  5.800E-19

      iter #  12 total cpu time :  4287.9 secs   av.it.:  10.0
      thresh= 7.616E-11 alpha_mix =  0.700 |ddv_scf|^2 =  3.382E-19

      iter #  13 total cpu time :  4297.4 secs   av.it.:   9.4
      thresh= 5.815E-11 alpha_mix =  0.700 |ddv_scf|^2 =  6.762E-21

     End of self-consistent calculation

     Convergence has been achieved 


     Representation #   2 mode #   2

     Self-consistent Calculation

      iter #   1 total cpu time :  4305.4 secs   av.it.:   5.5
      thresh= 1.000E-02 alpha_mix =  0.700 |ddv_scf|^2 =  6.242E-07

      iter #   2 total cpu time :  4317.4 secs   av.it.:  10.2
      thresh= 7.901E-05 alpha_mix =  0.700 |ddv_scf|^2 =  3.163E-07

      iter #   3 total cpu time :  4328.1 secs   av.it.:   9.7
      thresh= 5.624E-05 alpha_mix =  0.700 |ddv_scf|^2 =  6.262E-09

      iter #   4 total cpu time :  4339.4 secs   av.it.:   9.7
      thresh= 7.913E-06 alpha_mix =  0.700 |ddv_scf|^2 =  3.365E-10

      iter #   5 total cpu time :  4350.4 secs   av.it.:   9.7
      thresh= 1.834E-06 alpha_mix =  0.700 |ddv_scf|^2 =  4.647E-12

      iter #   6 total cpu time :  4361.4 secs   av.it.:   9.7
      thresh= 2.156E-07 alpha_mix =  0.700 |ddv_scf|^2 =  2.131E-14

      iter #   7 total cpu time :  4372.8 secs   av.it.:   9.7
      thresh= 1.460E-08 alpha_mix =  0.700 |ddv_scf|^2 =  1.812E-15

      iter #   8 total cpu time :  4384.1 secs   av.it.:   9.6
      thresh= 4.257E-09 alpha_mix =  0.700 |ddv_scf|^2 =  6.446E-17

      iter #   9 total cpu time :  4394.1 secs   av.it.:  10.0
      thresh= 8.029E-10 alpha_mix =  0.700 |ddv_scf|^2 =  2.103E-17

      iter #  10 total cpu time :  4404.9 secs   av.it.:   9.6
      thresh= 4.586E-10 alpha_mix =  0.700 |ddv_scf|^2 =  1.935E-18

      iter #  11 total cpu time :  4416.5 secs   av.it.:   9.9
      thresh= 1.391E-10 alpha_mix =  0.700 |ddv_scf|^2 =  1.412E-19

      iter #  12 total cpu time :  4427.4 secs   av.it.:   9.8
      thresh= 3.758E-11 alpha_mix =  0.700 |ddv_scf|^2 =  1.013E-20

      iter #  13 total cpu time :  4438.5 secs   av.it.:   9.9
      thresh= 1.007E-11 alpha_mix =  0.700 |ddv_scf|^2 =  2.308E-21

     End of self-consistent calculation

     Convergence has been achieved 


     Representation #   3 mode #   3

     Self-consistent Calculation

      iter #   1 total cpu time :  4446.9 secs   av.it.:   6.1
      thresh= 1.000E-02 alpha_mix =  0.700 |ddv_scf|^2 =  4.237E-06

      iter #   2 total cpu time :  4457.6 secs   av.it.:  10.1
      thresh= 2.059E-04 alpha_mix =  0.700 |ddv_scf|^2 =  3.670E-06

      iter #   3 total cpu time :  4467.9 secs   av.it.:   9.5
      thresh= 1.916E-04 alpha_mix =  0.700 |ddv_scf|^2 =  8.590E-09

      iter #   4 total cpu time :  4478.4 secs   av.it.:   9.8
      thresh= 9.268E-06 alpha_mix =  0.700 |ddv_scf|^2 =  3.565E-10

      iter #   5 total cpu time :  4488.3 secs   av.it.:   9.6
      thresh= 1.888E-06 alpha_mix =  0.700 |ddv_scf|^2 =  1.787E-11

      iter #   6 total cpu time :  4498.8 secs   av.it.:   9.5
      thresh= 4.227E-07 alpha_mix =  0.700 |ddv_scf|^2 =  2.445E-14

      iter #   7 total cpu time :  4510.5 secs   av.it.:   9.5
      thresh= 1.564E-08 alpha_mix =  0.700 |ddv_scf|^2 =  2.190E-15

      iter #   8 total cpu time :  4521.0 secs   av.it.:   9.5
      thresh= 4.680E-09 alpha_mix =  0.700 |ddv_scf|^2 =  5.313E-17

      iter #   9 total cpu time :  4531.5 secs   av.it.:  10.0
      thresh= 7.289E-10 alpha_mix =  0.700 |ddv_scf|^2 =  2.591E-17

      iter #  10 total cpu time :  4541.7 secs   av.it.:   9.5
      thresh= 5.090E-10 alpha_mix =  0.700 |ddv_scf|^2 =  7.584E-19

      iter #  11 total cpu time :  4552.0 secs   av.it.:   9.9
      thresh= 8.709E-11 alpha_mix =  0.700 |ddv_scf|^2 =  1.883E-19

      iter #  12 total cpu time :  4562.2 secs   av.it.:   9.5
      thresh= 4.340E-11 alpha_mix =  0.700 |ddv_scf|^2 =  7.990E-21

     End of self-consistent calculation

     Convergence has been achieved 


     Representation #   4 mode #   4

     Self-consistent Calculation

      iter #   1 total cpu time :  4569.9 secs   av.it.:   6.3
      thresh= 1.000E-02 alpha_mix =  0.700 |ddv_scf|^2 =  2.238E-05

      iter #   2 total cpu time :  4579.8 secs   av.it.:   9.9
      thresh= 4.730E-04 alpha_mix =  0.700 |ddv_scf|^2 =  5.237E-05

      iter #   3 total cpu time :  4589.8 secs   av.it.:   8.9
      thresh= 7.237E-04 alpha_mix =  0.700 |ddv_scf|^2 =  1.043E-07

      iter #   4 total cpu time :  4600.1 secs   av.it.:   9.5
      thresh= 3.230E-05 alpha_mix =  0.700 |ddv_scf|^2 =  4.856E-10

      iter #   5 total cpu time :  4610.3 secs   av.it.:   9.2
      thresh= 2.204E-06 alpha_mix =  0.700 |ddv_scf|^2 =  2.756E-11

      iter #   6 total cpu time :  4620.4 secs   av.it.:   9.1
      thresh= 5.249E-07 alpha_mix =  0.700 |ddv_scf|^2 =  5.205E-14

      iter #   7 total cpu time :  4630.1 secs   av.it.:   9.6
      thresh= 2.281E-08 alpha_mix =  0.700 |ddv_scf|^2 =  6.117E-15

      iter #   8 total cpu time :  4640.9 secs   av.it.:   9.8
      thresh= 7.821E-09 alpha_mix =  0.700 |ddv_scf|^2 =  7.245E-15

      iter #   9 total cpu time :  4650.2 secs   av.it.:   9.1
      thresh= 8.512E-09 alpha_mix =  0.700 |ddv_scf|^2 =  1.529E-15

      iter #  10 total cpu time :  4659.5 secs   av.it.:   9.1
      thresh= 3.910E-09 alpha_mix =  0.700 |ddv_scf|^2 =  6.465E-17

      iter #  11 total cpu time :  4669.2 secs   av.it.:   9.6
      thresh= 8.041E-10 alpha_mix =  0.700 |ddv_scf|^2 =  2.551E-18

      iter #  12 total cpu time :  4679.4 secs   av.it.:   9.6
      thresh= 1.597E-10 alpha_mix =  0.700 |ddv_scf|^2 =  2.330E-19

      iter #  13 total cpu time :  4689.7 secs   av.it.:   9.7
      thresh= 4.827E-11 alpha_mix =  0.700 |ddv_scf|^2 =  4.906E-20

      iter #  14 total cpu time :  4700.6 secs   av.it.:   9.8
      thresh= 2.215E-11 alpha_mix =  0.700 |ddv_scf|^2 =  1.792E-20

      iter #  15 total cpu time :  4710.6 secs   av.it.:   9.4
      thresh= 1.339E-11 alpha_mix =  0.700 |ddv_scf|^2 =  4.252E-21

     End of self-consistent calculation

     Convergence has been achieved 


     Representation #   5 mode #   5

     Self-consistent Calculation

      iter #   1 total cpu time :  4718.5 secs   av.it.:   5.9
      thresh= 1.000E-02 alpha_mix =  0.700 |ddv_scf|^2 =  1.869E-06

      iter #   2 total cpu time :  4728.6 secs   av.it.:  10.1
      thresh= 1.367E-04 alpha_mix =  0.700 |ddv_scf|^2 =  1.272E-06

      iter #   3 total cpu time :  4739.3 secs   av.it.:   9.6
      thresh= 1.128E-04 alpha_mix =  0.700 |ddv_scf|^2 =  5.403E-08

      iter #   4 total cpu time :  4748.5 secs   av.it.:   9.1
      thresh= 2.324E-05 alpha_mix =  0.700 |ddv_scf|^2 =  7.471E-10

      iter #   5 total cpu time :  4758.5 secs   av.it.:   9.4
      thresh= 2.733E-06 alpha_mix =  0.700 |ddv_scf|^2 =  2.964E-11

      iter #   6 total cpu time :  4768.3 secs   av.it.:   9.4
      thresh= 5.444E-07 alpha_mix =  0.700 |ddv_scf|^2 =  5.256E-14

      iter #   7 total cpu time :  4779.0 secs   av.it.:   9.6
      thresh= 2.292E-08 alpha_mix =  0.700 |ddv_scf|^2 =  3.591E-15

      iter #   8 total cpu time :  4788.8 secs   av.it.:   9.7
      thresh= 5.993E-09 alpha_mix =  0.700 |ddv_scf|^2 =  1.998E-15

      iter #   9 total cpu time :  4798.5 secs   av.it.:   9.3
      thresh= 4.470E-09 alpha_mix =  0.700 |ddv_scf|^2 =  2.215E-16

      iter #  10 total cpu time :  4809.1 secs   av.it.:   9.6
      thresh= 1.488E-09 alpha_mix =  0.700 |ddv_scf|^2 =  1.108E-16

      iter #  11 total cpu time :  4818.6 secs   av.it.:   9.2
      thresh= 1.053E-09 alpha_mix =  0.700 |ddv_scf|^2 =  2.726E-18

      iter #  12 total cpu time :  4829.2 secs   av.it.:   9.6
      thresh= 1.651E-10 alpha_mix =  0.700 |ddv_scf|^2 =  3.163E-19

      iter #  13 total cpu time :  4839.5 secs   av.it.:   9.7
      thresh= 5.624E-11 alpha_mix =  0.700 |ddv_scf|^2 =  1.278E-20

      iter #  14 total cpu time :  4850.1 secs   av.it.:   9.6
      thresh= 1.130E-11 alpha_mix =  0.700 |ddv_scf|^2 =  4.601E-22

     End of self-consistent calculation

     Convergence has been achieved 


     Representation #   6 mode #   6

     Self-consistent Calculation

      iter #   1 total cpu time :  4858.2 secs   av.it.:   6.0
      thresh= 1.000E-02 alpha_mix =  0.700 |ddv_scf|^2 =  1.961E-06

      iter #   2 total cpu time :  4869.2 secs   av.it.:  10.2
      thresh= 1.400E-04 alpha_mix =  0.700 |ddv_scf|^2 =  8.672E-07

      iter #   3 total cpu time :  4879.8 secs   av.it.:   9.7
      thresh= 9.313E-05 alpha_mix =  0.700 |ddv_scf|^2 =  1.413E-08

      iter #   4 total cpu time :  4890.3 secs   av.it.:   9.6
      thresh= 1.189E-05 alpha_mix =  0.700 |ddv_scf|^2 =  3.733E-10

      iter #   5 total cpu time :  4900.4 secs   av.it.:   9.5
      thresh= 1.932E-06 alpha_mix =  0.700 |ddv_scf|^2 =  1.494E-11

      iter #   6 total cpu time :  4910.2 secs   av.it.:   9.3
      thresh= 3.865E-07 alpha_mix =  0.700 |ddv_scf|^2 =  2.893E-14

      iter #   7 total cpu time :  4920.6 secs   av.it.:   9.7
      thresh= 1.701E-08 alpha_mix =  0.700 |ddv_scf|^2 =  1.962E-15

      iter #   8 total cpu time :  4930.8 secs   av.it.:   9.4
      thresh= 4.429E-09 alpha_mix =  0.700 |ddv_scf|^2 =  1.089E-16

      iter #   9 total cpu time :  4941.3 secs   av.it.:   9.8
      thresh= 1.043E-09 alpha_mix =  0.700 |ddv_scf|^2 =  1.360E-17

      iter #  10 total cpu time :  4952.2 secs   av.it.:   9.8
      thresh= 3.687E-10 alpha_mix =  0.700 |ddv_scf|^2 =  1.230E-18

      iter #  11 total cpu time :  4962.6 secs   av.it.:   9.7
      thresh= 1.109E-10 alpha_mix =  0.700 |ddv_scf|^2 =  1.728E-19

      iter #  12 total cpu time :  4972.9 secs   av.it.:   9.6
      thresh= 4.157E-11 alpha_mix =  0.700 |ddv_scf|^2 =  8.413E-21

     End of self-consistent calculation

     Convergence has been achieved 
 
     Number of q in the star =   24
     List of q in the star:
          1   0.600000000  -0.200000000   1.000000000
          2   1.000000000   0.200000000   0.600000000
          3   0.600000000   0.200000000   1.000000000
          4  -0.600000000  -0.200000000   1.000000000
          5  -1.000000000  -0.200000000  -0.600000000
          6  -1.000000000  -0.200000000   0.600000000
          7   0.600000000  -1.000000000   0.200000000
          8  -1.000000000   0.200000000  -0.600000000
          9   1.000000000  -0.600000000   0.200000000
         10  -0.600000000   1.000000000  -0.200000000
         11  -0.600000000  -1.000000000   0.200000000
         12   0.600000000  -1.000000000  -0.200000000
         13  -0.200000000   1.000000000   0.600000000
         14   0.200000000   1.000000000  -0.600000000
         15  -0.200000000  -1.000000000  -0.600000000
         16  -0.600000000   0.200000000   1.000000000
         17   1.000000000   0.600000000  -0.200000000
         18  -1.000000000  -0.600000000  -0.200000000
         19  -1.000000000   0.600000000   0.200000000
         20   0.200000000  -0.600000000   1.000000000
         21   0.200000000  -1.000000000   0.600000000
         22  -0.200000000  -0.600000000   1.000000000
         23  -0.200000000   0.600000000   1.000000000
         24   0.200000000   0.600000000  -1.000000000

     Diagonalizing the dynamical matrix

     q = (    0.600000000  -0.200000000   1.000000000 ) 

 **************************************************************************
     freq (    1) =       5.373059 [THz] =     179.225943 [cm-1]
     freq (    2) =       5.928155 [THz] =     197.741980 [cm-1]
     freq (    3) =       9.577023 [THz] =     319.455091 [cm-1]
     freq (    4) =      11.700532 [THz] =     390.287736 [cm-1]
     freq (    5) =      13.942320 [THz] =     465.065739 [cm-1]
     freq (    6) =      14.079906 [THz] =     469.655125 [cm-1]
 **************************************************************************
 
     init_run     :      0.27s CPU      0.40s WALL (       9 calls)
     electrons    :    486.48s CPU    498.60s WALL (       9 calls)

     Called by init_run:
     wfcinit      :      0.00s CPU      0.01s WALL (       9 calls)
     potinit      :      0.05s CPU      0.16s WALL (       9 calls)
     hinit0       :      0.08s CPU      0.09s WALL (       9 calls)

     Called by electrons:
     c_bands      :    486.48s CPU    498.60s WALL (       9 calls)
     v_of_rho     :      0.03s CPU      0.04s WALL (      10 calls)

     Called by c_bands:
     init_us_2    :      8.51s CPU      9.25s WALL (  417200 calls)
     cegterg      :    446.36s CPU    456.41s WALL (   10288 calls)

     Called by *egterg:
     cdiaghg      :    242.46s CPU    245.21s WALL (  136302 calls)
     h_psi        :   2912.19s CPU   3126.75s WALL ( 4458769 calls)
     g_psi        :      0.52s CPU      0.53s WALL (  126014 calls)

     Called by h_psi:
     h_psi:calbec :    237.40s CPU    254.20s WALL ( 4458769 calls)
     vloc_psi     :   2600.23s CPU   2792.10s WALL ( 4458769 calls)
     add_vuspsi   :     32.08s CPU     34.92s WALL ( 4458769 calls)

     General routines
     calbec       :    378.94s CPU    406.52s WALL ( 8948508 calls)
     fft          :      7.25s CPU      7.36s WALL (    9402 calls)
     ffts         :      3.57s CPU      3.84s WALL (   33457 calls)
     fftw         :   2959.01s CPU   3183.94s WALL (38071018 calls)
     interpolate  :      0.35s CPU      0.41s WALL (    1441 calls)
     davcio       :     18.71s CPU     22.19s WALL ( 1954394 calls)
 
     Parallel routines
     fft_scatt_xy :    191.86s CPU    206.02s WALL (38113877 calls)
     fft_scatt_yz :   2183.94s CPU   2345.99s WALL (38113877 calls)
 
     PHONON       :      1h17m CPU      1h22m WALL

     INITIALIZATION: 
     phq_setup    :      0.10s CPU      0.38s WALL (      10 calls)
     phq_init     :      4.18s CPU      4.61s WALL (      10 calls)
 
     phq_init     :      4.18s CPU      4.61s WALL (      10 calls)
     init_vloc    :      0.01s CPU      0.01s WALL (      10 calls)
     init_us_1    :      0.06s CPU      0.06s WALL (      10 calls)
 
     DYNAMICAL MATRIX:
     dynmat0      :      1.76s CPU      1.85s WALL (      10 calls)
     phqscf       :   4123.00s CPU   4439.19s WALL (      10 calls)
     dynmatrix    :      0.02s CPU      0.12s WALL (      10 calls)
 
     phqscf       :   4123.00s CPU   4439.19s WALL (      10 calls)
     solve_linter :   4116.24s CPU   4431.89s WALL (      48 calls)
     drhodv       :      6.72s CPU      7.17s WALL (      48 calls)
 
     dynmat0      :      1.76s CPU      1.85s WALL (      10 calls)
     dynmat_us    :      1.75s CPU      1.83s WALL (      10 calls)
     d2ionq       :      0.00s CPU      0.01s WALL (      10 calls)
 
     dynmat_us    :      1.75s CPU      1.83s WALL (      10 calls)
 
     phqscf       :   4123.00s CPU   4439.19s WALL (      10 calls)
     solve_linter :   4116.24s CPU   4431.89s WALL (      48 calls)
 
     solve_linter :   4116.24s CPU   4431.89s WALL (      48 calls)
     dvqpsi_us    :     27.49s CPU     29.38s WALL (   31728 calls)
     ortho        :     21.91s CPU     23.70s WALL (  395248 calls)
     cgsolve      :   3470.32s CPU   3730.00s WALL (  395248 calls)
     incdrhoscf   :    280.01s CPU    305.69s WALL (  395032 calls)
     vpsifft      :    257.90s CPU    279.45s WALL (  361792 calls)
     dv_of_drho   :      7.18s CPU      7.26s WALL (     711 calls)
     mix_pot      :      0.62s CPU      1.12s WALL (     591 calls)
     psymdvscf    :     11.17s CPU     11.45s WALL (     582 calls)
 
     dvqpsi_us    :     27.49s CPU     29.38s WALL (   31728 calls)
     dvqpsi_us_on :      1.03s CPU      1.11s WALL (   31728 calls)
 
     cgsolve      :   3470.32s CPU   3730.00s WALL (  395248 calls)
     ch_psi       :   3177.10s CPU   3414.92s WALL ( 4312179 calls)
 
     ch_psi       :   3177.10s CPU   3414.92s WALL ( 4312179 calls)
     h_psi        :   2912.19s CPU   3126.75s WALL ( 4458769 calls)
     last         :    327.35s CPU    352.02s WALL ( 4312179 calls)
 
     h_psi        :   2912.19s CPU   3126.75s WALL ( 4458769 calls)
     add_vuspsi   :     32.08s CPU     34.92s WALL ( 4458769 calls)
 
     incdrhoscf   :    280.01s CPU    305.69s WALL (  395032 calls)
 
 
      General routines
     calbec       :    378.94s CPU    406.52s WALL ( 8948508 calls)
     fft          :      7.25s CPU      7.36s WALL (    9402 calls)
     ffts         :      3.57s CPU      3.84s WALL (   33457 calls)
     fftw         :   2959.01s CPU   3183.94s WALL (38071018 calls)
     davcio       :     18.71s CPU     22.19s WALL ( 1954394 calls)
     write_rec    :      0.22s CPU      0.85s WALL (     639 calls)
 
 
     PHONON       :      1h17m CPU      1h22m WALL

 
   This run was terminated on:  17:19:32  14Jun2022            

=------------------------------------------------------------------------------=
   JOB DONE.
=------------------------------------------------------------------------------=
