
     Program PWSCF v.6.7MaX starts on 14Jun2022 at 15:56:28 

     This program is part of the open-source Quantum ESPRESSO suite
     for quantum simulation of materials; please cite
         "P. Giannozzi et al., J. Phys.:Condens. Matter 21 395502 (2009);
         "P. Giannozzi et al., J. Phys.:Condens. Matter 29 465901 (2017);
          URL http://www.quantum-espresso.org", 
     in publications or presentations arising from this work. More details at
     http://www.quantum-espresso.org/quote

     Parallel version (MPI), running on    20 processors

     MPI processes distributed on     1 nodes
     R & G space division:  proc/nbgrp/npool/nimage =      20
     Waiting for input...
     Reading input from standard input

     Current dimensions of program PWSCF are:
     Max number of different atomic species (ntypx) = 10
     Max number of k-points (npk) =  40000
     Max angular momentum in pseudopotentials (lmaxx) =  3

     Subspace diagonalization in iterative solution of the eigenvalue problem:
     one sub-group per band group will be used
     scalapack distributed-memory algorithm (size of sub-group:  4*  4 procs)

     Message from routine setup:
     no reason to have ecutrho>4*ecutwfc
 
     Parallelization info
     --------------------
     sticks:   dense  smooth     PW     G-vecs:    dense   smooth      PW
     Min          36      29      9                  646      462      81
     Max          37      30     10                  648      465      83
     Sum         733     583    187                12939     9257    1639
 


     bravais-lattice index     =            2
     lattice parameter (alat)  =      10.2623  a.u.
     unit-cell volume          =     270.1967 (a.u.)^3
     number of atoms/cell      =            2
     number of atomic types    =            1
     number of electrons       =         8.00
     number of Kohn-Sham states=            4
     kinetic-energy cutoff     =      40.0000  Ry
     charge density cutoff     =     200.0000  Ry
     scf convergence threshold =      1.0E-10
     mixing beta               =       0.5000
     number of iterations used =            8  local-TF  mixing
     Exchange-correlation=  SLA  PW   PBE  PBE
                           (   1   4   3   4   0   0   0)

     celldm(1)=  10.262347  celldm(2)=   0.000000  celldm(3)=   0.000000
     celldm(4)=   0.000000  celldm(5)=   0.000000  celldm(6)=   0.000000

     crystal axes: (cart. coord. in units of alat)
               a(1) = (  -0.500000   0.000000   0.500000 )  
               a(2) = (   0.000000   0.500000   0.500000 )  
               a(3) = (  -0.500000   0.500000   0.000000 )  

     reciprocal axes: (cart. coord. in units 2 pi/alat)
               b(1) = ( -1.000000 -1.000000  1.000000 )  
               b(2) = (  1.000000  1.000000  1.000000 )  
               b(3) = ( -1.000000  1.000000 -1.000000 )  


     PseudoPot. # 1 for Si read from file:
     ../Pseudo/Si.pbe-rrkj.UPF
     MD5 check sum: cf7ab5690cd9a85b22c4813f7e365554
     Pseudo is Norm-conserving, Zval =  4.0
     Generated by new atomic code, or converted to UPF format
     Using radial grid of  883 points,  3 beta functions with: 
                l(1) =   0
                l(2) =   0
                l(3) =   1

     atomic species   valence    mass     pseudopotential
        Si             4.00    28.08600     Si( 1.00)

     48 Sym. Ops., with inversion, found (24 have fractional translation)



   Cartesian axes

     site n.     atom                  positions (alat units)
         1           Si  tau(   1) = (   0.0000000   0.0000000   0.0000000  )
         2           Si  tau(   2) = (  -0.2500000   0.2500000   0.2500000  )

     number of k points=    72
                       cart. coord. in units 2pi/alat
        k(    1) = (   0.0000000   0.0000000   0.0000000), wk =   0.0011574
        k(    2) = (  -0.0833333   0.0833333  -0.0833333), wk =   0.0092593
        k(    3) = (  -0.1666667   0.1666667  -0.1666667), wk =   0.0092593
        k(    4) = (  -0.2500000   0.2500000  -0.2500000), wk =   0.0092593
        k(    5) = (  -0.3333333   0.3333333  -0.3333333), wk =   0.0092593
        k(    6) = (  -0.4166667   0.4166667  -0.4166667), wk =   0.0092593
        k(    7) = (   0.5000000  -0.5000000   0.5000000), wk =   0.0046296
        k(    8) = (   0.0000000   0.1666667   0.0000000), wk =   0.0069444
        k(    9) = (  -0.0833333   0.2500000  -0.0833333), wk =   0.0277778
        k(   10) = (  -0.1666667   0.3333333  -0.1666667), wk =   0.0277778
        k(   11) = (  -0.2500000   0.4166667  -0.2500000), wk =   0.0277778
        k(   12) = (  -0.3333333   0.5000000  -0.3333333), wk =   0.0277778
        k(   13) = (   0.5833333  -0.4166667   0.5833333), wk =   0.0277778
        k(   14) = (   0.5000000  -0.3333333   0.5000000), wk =   0.0277778
        k(   15) = (   0.4166667  -0.2500000   0.4166667), wk =   0.0277778
        k(   16) = (   0.3333333  -0.1666667   0.3333333), wk =   0.0277778
        k(   17) = (   0.2500000  -0.0833333   0.2500000), wk =   0.0277778
        k(   18) = (   0.1666667   0.0000000   0.1666667), wk =   0.0138889
        k(   19) = (   0.0000000   0.3333333   0.0000000), wk =   0.0069444
        k(   20) = (  -0.0833333   0.4166667  -0.0833333), wk =   0.0277778
        k(   21) = (  -0.1666667   0.5000000  -0.1666667), wk =   0.0277778
        k(   22) = (  -0.2500000   0.5833333  -0.2500000), wk =   0.0277778
        k(   23) = (   0.6666667  -0.3333333   0.6666667), wk =   0.0277778
        k(   24) = (   0.5833333  -0.2500000   0.5833333), wk =   0.0277778
        k(   25) = (   0.5000000  -0.1666667   0.5000000), wk =   0.0277778
        k(   26) = (   0.4166667  -0.0833333   0.4166667), wk =   0.0277778
        k(   27) = (   0.3333333   0.0000000   0.3333333), wk =   0.0138889
        k(   28) = (   0.0000000   0.5000000   0.0000000), wk =   0.0069444
        k(   29) = (  -0.0833333   0.5833333  -0.0833333), wk =   0.0277778
        k(   30) = (  -0.1666667   0.6666667  -0.1666667), wk =   0.0277778
        k(   31) = (   0.7500000  -0.2500000   0.7500000), wk =   0.0277778
        k(   32) = (   0.6666667  -0.1666667   0.6666667), wk =   0.0277778
        k(   33) = (   0.5833333  -0.0833333   0.5833333), wk =   0.0277778
        k(   34) = (   0.5000000   0.0000000   0.5000000), wk =   0.0138889
        k(   35) = (   0.0000000   0.6666667   0.0000000), wk =   0.0069444
        k(   36) = (  -0.0833333   0.7500000  -0.0833333), wk =   0.0277778
        k(   37) = (   0.8333333  -0.1666667   0.8333333), wk =   0.0277778
        k(   38) = (   0.7500000  -0.0833333   0.7500000), wk =   0.0277778
        k(   39) = (   0.6666667   0.0000000   0.6666667), wk =   0.0138889
        k(   40) = (   0.0000000   0.8333333   0.0000000), wk =   0.0069444
        k(   41) = (   0.9166667  -0.0833333   0.9166667), wk =   0.0277778
        k(   42) = (   0.8333333   0.0000000   0.8333333), wk =   0.0138889
        k(   43) = (   0.0000000  -1.0000000   0.0000000), wk =   0.0034722
        k(   44) = (  -0.1666667   0.3333333   0.0000000), wk =   0.0277778
        k(   45) = (  -0.2500000   0.4166667  -0.0833333), wk =   0.0555556
        k(   46) = (  -0.3333333   0.5000000  -0.1666667), wk =   0.0555556
        k(   47) = (   0.5833333  -0.4166667   0.7500000), wk =   0.0555556
        k(   48) = (   0.5000000  -0.3333333   0.6666667), wk =   0.0277778
        k(   49) = (  -0.1666667   0.5000000   0.0000000), wk =   0.0277778
        k(   50) = (  -0.2500000   0.5833333  -0.0833333), wk =   0.0555556
        k(   51) = (   0.6666667  -0.3333333   0.8333333), wk =   0.0555556
        k(   52) = (   0.5833333  -0.2500000   0.7500000), wk =   0.0555556
        k(   53) = (   0.5000000  -0.1666667   0.6666667), wk =   0.0555556
        k(   54) = (   0.4166667  -0.0833333   0.5833333), wk =   0.0555556
        k(   55) = (   0.3333333   0.0000000   0.5000000), wk =   0.0277778
        k(   56) = (  -0.1666667   0.6666667   0.0000000), wk =   0.0277778
        k(   57) = (   0.7500000  -0.2500000   0.9166667), wk =   0.0555556
        k(   58) = (   0.6666667  -0.1666667   0.8333333), wk =   0.0555556
        k(   59) = (   0.5833333  -0.0833333   0.7500000), wk =   0.0555556
        k(   60) = (   0.5000000   0.0000000   0.6666667), wk =   0.0277778
        k(   61) = (   0.8333333  -0.1666667   1.0000000), wk =   0.0277778
        k(   62) = (   0.7500000  -0.0833333   0.9166667), wk =   0.0555556
        k(   63) = (   0.6666667   0.0000000   0.8333333), wk =   0.0277778
        k(   64) = (  -0.1666667  -1.0000000   0.0000000), wk =   0.0138889
        k(   65) = (   0.6666667  -0.3333333   1.0000000), wk =   0.0277778
        k(   66) = (   0.5833333  -0.2500000   0.9166667), wk =   0.0555556
        k(   67) = (   0.5000000  -0.1666667   0.8333333), wk =   0.0277778
        k(   68) = (   0.6666667  -0.1666667   1.0000000), wk =   0.0277778
        k(   69) = (   0.5833333  -0.0833333   0.9166667), wk =   0.0555556
        k(   70) = (   0.5000000   0.0000000   0.8333333), wk =   0.0277778
        k(   71) = (  -0.3333333  -1.0000000   0.0000000), wk =   0.0138889
        k(   72) = (  -0.5000000  -1.0000000   0.0000000), wk =   0.0069444

     Dense  grid:    12939 G-vectors     FFT dimensions: (  36,  36,  36)

     Smooth grid:     9257 G-vectors     FFT dimensions: (  32,  32,  32)

     Estimated max dynamical RAM per process >       1.19 MB

     Estimated total dynamical RAM >      23.72 MB

     Initial potential from superposition of free atoms

     starting charge    7.99889, renormalised to    8.00000
     Starting wfcs are    8 randomized atomic wfcs

     total cpu time spent up to now is        0.6 secs

     Self-consistent Calculation

     iteration #  1     ecut=    40.00 Ry     beta= 0.50
     Davidson diagonalization with overlap
     ethr =  1.00E-02,  avg # of iterations =  2.0

     Threshold (ethr) on eigenvalues was too large:
     Diagonalizing with lowered threshold

     Davidson diagonalization with overlap
     ethr =  5.92E-04,  avg # of iterations =  2.0

     total cpu time spent up to now is        1.9 secs

     total energy              =     -15.74525282 Ry
     estimated scf accuracy    <       0.05557982 Ry

     iteration #  2     ecut=    40.00 Ry     beta= 0.50
     Davidson diagonalization with overlap
     ethr =  6.95E-04,  avg # of iterations =  1.0

     total cpu time spent up to now is        2.4 secs

     total energy              =     -15.73930206 Ry
     estimated scf accuracy    <       0.02503092 Ry

     iteration #  3     ecut=    40.00 Ry     beta= 0.50
     Davidson diagonalization with overlap
     ethr =  3.13E-04,  avg # of iterations =  1.0

     total cpu time spent up to now is        2.9 secs

     total energy              =     -15.74106623 Ry
     estimated scf accuracy    <       0.00031173 Ry

     iteration #  4     ecut=    40.00 Ry     beta= 0.50
     Davidson diagonalization with overlap
     ethr =  3.90E-06,  avg # of iterations =  4.1

     total cpu time spent up to now is        4.2 secs

     total energy              =     -15.74137361 Ry
     estimated scf accuracy    <       0.00005920 Ry

     iteration #  5     ecut=    40.00 Ry     beta= 0.50
     Davidson diagonalization with overlap
     ethr =  7.40E-07,  avg # of iterations =  2.4

     total cpu time spent up to now is        4.9 secs

     total energy              =     -15.74138781 Ry
     estimated scf accuracy    <       0.00000040 Ry

     iteration #  6     ecut=    40.00 Ry     beta= 0.50
     Davidson diagonalization with overlap
     ethr =  4.99E-09,  avg # of iterations =  6.8

     total cpu time spent up to now is        6.4 secs

     total energy              =     -15.74138951 Ry
     estimated scf accuracy    <       0.00000077 Ry

     iteration #  7     ecut=    40.00 Ry     beta= 0.50
     Davidson diagonalization with overlap
     ethr =  4.99E-09,  avg # of iterations =  2.0

     total cpu time spent up to now is        7.1 secs

     total energy              =     -15.74138961 Ry
     estimated scf accuracy    <       0.00000002 Ry

     iteration #  8     ecut=    40.00 Ry     beta= 0.50
     Davidson diagonalization with overlap
     ethr =  2.40E-10,  avg # of iterations =  2.3

     total cpu time spent up to now is        7.7 secs

     total energy              =     -15.74138961 Ry
     estimated scf accuracy    <          2.1E-09 Ry

     iteration #  9     ecut=    40.00 Ry     beta= 0.50
     Davidson diagonalization with overlap
     ethr =  2.64E-11,  avg # of iterations =  2.8

     total cpu time spent up to now is        8.5 secs

     total energy              =     -15.74138961 Ry
     estimated scf accuracy    <          1.5E-10 Ry

     iteration # 10     ecut=    40.00 Ry     beta= 0.50
     Davidson diagonalization with overlap
     ethr =  1.86E-12,  avg # of iterations =  4.0

     total cpu time spent up to now is        9.7 secs

     total energy              =     -15.74138961 Ry
     estimated scf accuracy    <          1.8E-10 Ry

     iteration # 11     ecut=    40.00 Ry     beta= 0.50
     Davidson diagonalization with overlap
     ethr =  1.86E-12,  avg # of iterations =  1.2

     total cpu time spent up to now is       10.3 secs

     End of self-consistent calculation

          k = 0.0000 0.0000 0.0000 (  1139 PWs)   bands (ev):

    -5.6740   6.2271   6.2271   6.2271

          k =-0.0833 0.0833-0.0833 (  1185 PWs)   bands (ev):

    -5.5831   5.3821   6.0842   6.0842

          k =-0.1667 0.1667-0.1667 (  1167 PWs)   bands (ev):

    -5.3130   3.8717   5.7789   5.7789

          k =-0.2500 0.2500-0.2500 (  1164 PWs)   bands (ev):

    -4.8745   2.3321   5.4705   5.4705

          k =-0.3333 0.3333-0.3333 (  1149 PWs)   bands (ev):

    -4.2971   0.9283   5.2304   5.2304

          k =-0.4167 0.4167-0.4167 (  1155 PWs)   bands (ev):

    -3.6749  -0.2011   5.0823   5.0823

          k = 0.5000-0.5000 0.5000 (  1158 PWs)   bands (ev):

    -3.3388  -0.7080   5.0326   5.0326

          k = 0.0000 0.1667 0.0000 (  1179 PWs)   bands (ev):

    -5.5526   5.5514   5.7994   5.7994

          k =-0.0833 0.2500-0.0833 (  1164 PWs)   bands (ev):

    -5.3417   4.3250   5.4367   5.6311

          k =-0.1667 0.3333-0.1667 (  1155 PWs)   bands (ev):

    -4.9579   2.8295   5.1244   5.3104

          k =-0.2500 0.4167-0.2500 (  1151 PWs)   bands (ev):

    -4.4217   1.3968   4.9149   4.9590

          k =-0.3333 0.5000-0.3333 (  1153 PWs)   bands (ev):

    -3.7951   0.1677   4.6637   4.8252

          k = 0.5833-0.4167 0.5833 (  1160 PWs)   bands (ev):

    -3.3019  -0.6035   4.4589   4.8559

          k = 0.5000-0.3333 0.5000 (  1156 PWs)   bands (ev):

    -3.4235  -0.4252   4.3633   4.9986

          k = 0.4167-0.2500 0.4167 (  1147 PWs)   bands (ev):

    -4.0075   0.5479   4.3898   5.2376

          k = 0.3333-0.1667 0.3333 (  1151 PWs)   bands (ev):

    -4.6161   1.8603   4.5482   5.5468

          k = 0.2500-0.0833 0.2500 (  1160 PWs)   bands (ev):

    -5.1049   3.3147   4.8501   5.8751

          k = 0.1667 0.0000 0.1667 (  1163 PWs)   bands (ev):

    -5.4322   4.6607   5.3686   6.1096

          k = 0.0000 0.3333 0.0000 (  1162 PWs)   bands (ev):

    -5.1902   4.2245   5.0389   5.0389

          k =-0.0833 0.4167-0.0833 (  1158 PWs)   bands (ev):

    -4.8632   3.1394   4.6974   4.7052

          k =-0.1667 0.5000-0.1667 (  1151 PWs)   bands (ev):

    -4.3751   1.8306   4.2496   4.4870

          k =-0.2500 0.5833-0.2500 (  1152 PWs)   bands (ev):

    -3.7667   0.5967   3.8128   4.4031

          k = 0.6667-0.3333 0.6667 (  1153 PWs)   bands (ev):

    -3.1812  -0.3387   3.4691   4.4567

          k = 0.5833-0.2500 0.5833 (  1157 PWs)   bands (ev):

    -3.0659  -0.4993   3.2550   4.6402

          k = 0.5000-0.1667 0.5000 (  1156 PWs)   bands (ev):

    -3.5674   0.2614   3.1972   4.9345

          k = 0.4167-0.0833 0.4167 (  1156 PWs)   bands (ev):

    -4.1928   1.4083   3.3390   5.3016

          k = 0.3333 0.0000 0.3333 (  1147 PWs)   bands (ev):

    -4.7249   2.5478   3.8260   5.6645

          k = 0.0000 0.5000 0.0000 (  1174 PWs)   bands (ev):

    -4.5927   2.7555   4.3435   4.3435

          k =-0.0833 0.5833-0.0833 (  1154 PWs)   bands (ev):

    -4.1563   1.8475   3.8816   4.0975

          k =-0.1667 0.6667-0.1667 (  1153 PWs)   bands (ev):

    -3.5808   0.8192   3.2535   3.9904

          k = 0.7500-0.2500 0.7500 (  1156 PWs)   bands (ev):

    -2.9555  -0.1080   2.7092   4.0289

          k = 0.6667-0.1667 0.6667 (  1151 PWs)   bands (ev):

    -2.6298  -0.5244   2.3467   4.2086

          k = 0.5833-0.0833 0.5833 (  1152 PWs)   bands (ev):

    -3.0071  -0.0290   2.2260   4.5127

          k = 0.5000 0.0000 0.5000 (  1159 PWs)   bands (ev):

    -3.6302   0.7936   2.4884   4.9040

          k = 0.0000 0.6667 0.0000 (  1150 PWs)   bands (ev):

    -3.7710   1.2675   3.8167   3.8167

          k =-0.0833 0.7500-0.0833 (  1152 PWs)   bands (ev):

    -3.2365   0.4835   3.3330   3.6743

          k = 0.8333-0.1667 0.8333 (  1149 PWs)   bands (ev):

    -2.6070  -0.2838   2.6067   3.6804

          k = 0.7500-0.0833 0.7500 (  1149 PWs)   bands (ev):

    -2.1359  -0.7760   2.0283   3.8339

          k = 0.6667 0.0000 0.6667 (  1141 PWs)   bands (ev):

    -2.4083  -0.4909   1.8267   4.1219

          k = 0.0000 0.8333 0.0000 (  1162 PWs)   bands (ev):

    -2.7424  -0.1802   3.4921   3.4921

          k = 0.9167-0.0833 0.9167 (  1150 PWs)   bands (ev):

    -2.1290  -0.8668   3.0621   3.4585

          k = 0.8333 0.0000 0.8333 (  1152 PWs)   bands (ev):

    -1.6712  -1.2714   2.3924   3.5754

          k = 0.0000-1.0000 0.0000 (  1162 PWs)   bands (ev):

    -1.5330  -1.5330   3.3827   3.3827

          k =-0.1667 0.3333 0.0000 (  1157 PWs)   bands (ev):

    -5.0731   3.5336   4.6012   5.5264

          k =-0.2500 0.4167-0.0833 (  1148 PWs)   bands (ev):

    -4.6368   2.2960   4.0731   5.2517

          k =-0.3333 0.5000-0.1667 (  1151 PWs)   bands (ev):

    -4.0612   0.9958   3.8070   4.9245

          k = 0.5833-0.4167 0.7500 (  1151 PWs)   bands (ev):

    -3.4379  -0.0944   3.6819   4.6775

          k = 0.5000-0.3333 0.6667 (  1152 PWs)   bands (ev):

    -3.0976  -0.5942   3.6472   4.5855

          k =-0.1667 0.5000 0.0000 (  1156 PWs)   bands (ev):

    -4.4821   2.3504   3.9072   4.6082

          k =-0.2500 0.5833-0.0833 (  1152 PWs)   bands (ev):

    -3.9495   1.3017   3.3739   4.3196

          k = 0.6667-0.3333 0.8333 (  1153 PWs)   bands (ev):

    -3.3231   0.2466   3.0211   4.1082

          k = 0.5833-0.2500 0.7500 (  1152 PWs)   bands (ev):

    -2.8241  -0.4620   2.7768   4.0899

          k = 0.5000-0.1667 0.6667 (  1152 PWs)   bands (ev):

    -2.9605  -0.2742   2.6577   4.2626

          k = 0.4167-0.0833 0.5833 (  1154 PWs)   bands (ev):

    -3.5524   0.6047   2.7292   4.5794

          k = 0.3333 0.0000 0.5000 (  1157 PWs)   bands (ev):

    -4.1555   1.5831   3.1413   4.9609

          k =-0.1667 0.6667 0.0000 (  1154 PWs)   bands (ev):

    -3.6721   1.0919   3.3981   3.8235

          k = 0.7500-0.2500 0.9167 (  1156 PWs)   bands (ev):

    -3.0662   0.2580   2.8124   3.6066

          k = 0.6667-0.1667 0.8333 (  1154 PWs)   bands (ev):

    -2.4753  -0.4577   2.2924   3.6148

          k = 0.5833-0.0833 0.7500 (  1157 PWs)   bands (ev):

    -2.4032  -0.5295   2.0034   3.8134

          k = 0.5000 0.0000 0.6667 (  1161 PWs)   bands (ev):

    -2.9420   0.0607   2.0898   4.1581

          k = 0.8333-0.1667 1.0000 (  1159 PWs)   bands (ev):

    -2.6646  -0.2162   3.1141   3.3089

          k = 0.7500-0.0833 0.9167 (  1153 PWs)   bands (ev):

    -2.0350  -0.8579   2.4860   3.2656

          k = 0.6667 0.0000 0.8333 (  1151 PWs)   bands (ev):

    -1.8778  -0.9728   1.9879   3.4626

          k =-0.1667-1.0000 0.0000 (  1148 PWs)   bands (ev):

    -1.4943  -1.4943   3.0780   3.0780

          k = 0.6667-0.3333 1.0000 (  1151 PWs)   bands (ev):

    -3.3850   0.6337   2.6707   3.9411

          k = 0.5833-0.2500 0.9167 (  1152 PWs)   bands (ev):

    -2.7599  -0.1356   2.3250   3.6042

          k = 0.5000-0.1667 0.8333 (  1152 PWs)   bands (ev):

    -2.3980  -0.5662   2.2331   3.4746

          k = 0.6667-0.1667 1.0000 (  1155 PWs)   bands (ev):

    -2.4495  -0.3597   2.4710   3.0870

          k = 0.5833-0.0833 0.9167 (  1158 PWs)   bands (ev):

    -1.9252  -0.8657   2.1549   2.9333

          k = 0.5000 0.0000 0.8333 (  1153 PWs)   bands (ev):

    -2.1565  -0.6368   2.0302   3.1583

          k =-0.3333-1.0000 0.0000 (  1154 PWs)   bands (ev):

    -1.4113  -1.4113   2.5930   2.5930

          k =-0.5000-1.0000 0.0000 (  1144 PWs)   bands (ev):

    -1.3665  -1.3665   2.3851   2.3851

     highest occupied level (ev):     6.2271

!    total energy              =     -15.74138961 Ry
     estimated scf accuracy    <          5.5E-12 Ry

     The total energy is the sum of the following terms:
     one-electron contribution =       4.77367182 Ry
     hartree contribution      =       1.09445420 Ry
     xc contribution           =      -4.81242789 Ry
     ewald contribution        =     -16.79708774 Ry

     convergence has been achieved in  11 iterations

     Forces acting on atoms (cartesian axes, Ry/au):

     atom    1 type  1   force =     0.00000000    0.00000000    0.00000000
     atom    2 type  1   force =     0.00000000    0.00000000    0.00000000

     Total force =     0.000000     Total SCF correction =     0.000000


     Computing stress (Cartesian axis) and pressure

          total   stress  (Ry/bohr**3)                   (kbar)     P=       22.44
   0.00015255   0.00000000   0.00000000           22.44        0.00        0.00
   0.00000000   0.00015255   0.00000000            0.00       22.44        0.00
   0.00000000   0.00000000   0.00015255            0.00        0.00       22.44


     Writing output data file ./Silicon.save/
 
     init_run     :      0.32s CPU      0.40s WALL (       1 calls)
     electrons    :      9.41s CPU      9.67s WALL (       1 calls)
     forces       :      0.02s CPU      0.03s WALL (       1 calls)
     stress       :      0.05s CPU      0.05s WALL (       1 calls)

     Called by init_run:
     wfcinit      :      0.29s CPU      0.34s WALL (       1 calls)
     potinit      :      0.01s CPU      0.01s WALL (       1 calls)
     hinit0       :      0.01s CPU      0.02s WALL (       1 calls)

     Called by electrons:
     c_bands      :      9.02s CPU      9.22s WALL (      12 calls)
     sum_band     :      0.32s CPU      0.34s WALL (      12 calls)
     v_of_rho     :      0.03s CPU      0.04s WALL (      12 calls)
     mix_rho      :      0.04s CPU      0.04s WALL (      12 calls)

     Called by c_bands:
     init_us_2    :      0.04s CPU      0.04s WALL (    1944 calls)
     cegterg      :      8.91s CPU      9.11s WALL (     864 calls)

     Called by *egterg:
     cdiaghg      :      4.19s CPU      4.29s WALL (    3063 calls)
     h_psi        :      2.08s CPU      2.17s WALL (    3207 calls)
     g_psi        :      0.01s CPU      0.01s WALL (    2271 calls)

     Called by h_psi:
     h_psi:calbec :      0.17s CPU      0.18s WALL (    3207 calls)
     vloc_psi     :      1.85s CPU      1.92s WALL (    3207 calls)
     add_vuspsi   :      0.03s CPU      0.04s WALL (    3207 calls)

     General routines
     calbec       :      0.19s CPU      0.20s WALL (    3567 calls)
     fft          :      0.03s CPU      0.04s WALL (     150 calls)
     ffts         :      0.02s CPU      0.02s WALL (     172 calls)
     fftw         :      2.02s CPU      2.10s WALL (   25566 calls)
     interpolate  :      0.00s CPU      0.00s WALL (      12 calls)
 
     Parallel routines
     fft_scatt_xy :      0.14s CPU      0.14s WALL (   25888 calls)
     fft_scatt_yz :      1.51s CPU      1.57s WALL (   25888 calls)
 
     PWSCF        :      9.98s CPU     10.53s WALL

 
   This run was terminated on:  15:56:39  14Jun2022            

=------------------------------------------------------------------------------=
   JOB DONE.
=------------------------------------------------------------------------------=
