
     Program PWSCF v.6.7MaX starts on  9Feb2022 at  9: 9:20 

     This program is part of the open-source Quantum ESPRESSO suite
     for quantum simulation of materials; please cite
         "P. Giannozzi et al., J. Phys.:Condens. Matter 21 395502 (2009);
         "P. Giannozzi et al., J. Phys.:Condens. Matter 29 465901 (2017);
          URL http://www.quantum-espresso.org", 
     in publications or presentations arising from this work. More details at
     http://www.quantum-espresso.org/quote

     Parallel version (MPI), running on    30 processors

     MPI processes distributed on     1 nodes
     R & G space division:  proc/nbgrp/npool/nimage =      30
     Waiting for input...
     Reading input from standard input

     Current dimensions of program PWSCF are:
     Max number of different atomic species (ntypx) = 10
     Max number of k-points (npk) =  40000
     Max angular momentum in pseudopotentials (lmaxx) =  3
     file C.pbe-rrkjus.UPF: wavefunction(s)  2S 2P renormalized
     file H.pbe-rrkjus.UPF: wavefunction(s)  1S renormalized
     Message from routine set_cutoff:
     ecutrho < 4*ecutwfc, are you sure?

     Subspace diagonalization in iterative solution of the eigenvalue problem:
     one sub-group per band group will be used
     scalapack distributed-memory algorithm (size of sub-group:  5*  5 procs)

 
     Parallelization info
     --------------------
     sticks:   dense  smooth     PW     G-vecs:    dense   smooth      PW
     Min         176     176     63                17397    17397    3781
     Max         177     177     64                17400    17400    3788
     Sum        5289    5289   1907               521949   521949  113503
 


     bravais-lattice index     =            8
     lattice parameter (alat)  =       8.0551  a.u.
     unit-cell volume          =    6969.4781 (a.u.)^3
     number of atoms/cell      =           14
     number of atomic types    =            2
     number of electrons       =        44.00
     number of Kohn-Sham states=           22
     kinetic-energy cutoff     =      90.0000  Ry
     charge density cutoff     =     270.0000  Ry
     scf convergence threshold =      1.0E-08
     mixing beta               =       0.3000
     number of iterations used =            8  local-TF  mixing
     energy convergence thresh.=      1.0E-04
     force convergence thresh. =      1.0E-03
     press convergence thresh. =      5.0E-01
     Exchange-correlation=  SLA  PW   PBE  PBE
                           (   1   4   3   4   0   0   0)
     nstep                     =           50


     celldm(1)=   8.055109  celldm(2)=   3.789373  celldm(3)=   3.518996
     celldm(4)=   0.000000  celldm(5)=   0.000000  celldm(6)=   0.000000

     crystal axes: (cart. coord. in units of alat)
               a(1) = (   1.000000   0.000000   0.000000 )  
               a(2) = (   0.000000   3.789373   0.000000 )  
               a(3) = (   0.000000   0.000000   3.518996 )  

     reciprocal axes: (cart. coord. in units 2 pi/alat)
               b(1) = (  1.000000  0.000000  0.000000 )  
               b(2) = (  0.000000  0.263896  0.000000 )  
               b(3) = (  0.000000  0.000000  0.284172 )  


     PseudoPot. # 1 for C  read from file:
     ../Pseudo/C.pbe-rrkjus.UPF
     MD5 check sum: 00fb224312de0c5b6853bd333518df6f
     Pseudo is Ultrasoft, Zval =  4.0
     Generated by new atomic code, or converted to UPF format
     Using radial grid of  627 points,  4 beta functions with: 
                l(1) =   0
                l(2) =   0
                l(3) =   1
                l(4) =   1
     Q(r) pseudized with 0 coefficients 


     PseudoPot. # 2 for H  read from file:
     ../Pseudo/H.pbe-rrkjus.UPF
     MD5 check sum: 7cc9d459525c9a0585f487a71c3c9563
     Pseudo is Ultrasoft, Zval =  1.0
     Generated by new atomic code, or converted to UPF format
     Using radial grid of 1061 points,  2 beta functions with: 
                l(1) =   0
                l(2) =   0
     Q(r) pseudized with 0 coefficients 


     atomic species   valence    mass     pseudopotential
        C              4.00    12.01070     C ( 1.00)
        H              1.00     1.00794     H ( 1.00)

      4 Sym. Ops. (no inversion) found



   Cartesian axes

     site n.     atom                  positions (alat units)
         1           C   tau(   1) = (   0.6594821   1.1830590   1.7594978  )
         2           C   tau(   2) = (   0.8333195   1.4632346   1.7594978  )
         3           C   tau(   3) = (   0.3405179   1.1830590   1.7594978  )
         4           C   tau(   4) = (   0.6669293   1.7503517   1.7594978  )
         5           C   tau(   5) = (   0.8333200   2.0374593   1.7594978  )
         6           C   tau(   6) = (   0.1666805   1.4632346   1.7594978  )
         7           C   tau(   7) = (   0.3330707   1.7503517   1.7594978  )
         8           C   tau(   8) = (   0.6594810   2.3176373   1.7594978  )
         9           C   tau(   9) = (   0.1666800   2.0374593   1.7594978  )
        10           C   tau(  10) = (   0.3405190   2.3176373   1.7594978  )
        11           H   tau(  11) = (   0.7822275   0.9583300   1.7594978  )
        12           H   tau(  12) = (   0.2177725   0.9583300   1.7594978  )
        13           H   tau(  13) = (   0.7822279   2.5423693   1.7594978  )
        14           H   tau(  14) = (   0.2177721   2.5423693   1.7594978  )

     number of k points=    21
                       cart. coord. in units 2pi/alat
        k(    1) = (   0.0000000   0.0000000   0.0000000), wk =   0.0500000
        k(    2) = (   0.0250000   0.0000000   0.0000000), wk =   0.1000000
        k(    3) = (   0.0500000   0.0000000   0.0000000), wk =   0.1000000
        k(    4) = (   0.0750000   0.0000000   0.0000000), wk =   0.1000000
        k(    5) = (   0.1000000   0.0000000   0.0000000), wk =   0.1000000
        k(    6) = (   0.1250000   0.0000000   0.0000000), wk =   0.1000000
        k(    7) = (   0.1500000   0.0000000   0.0000000), wk =   0.1000000
        k(    8) = (   0.1750000   0.0000000   0.0000000), wk =   0.1000000
        k(    9) = (   0.2000000   0.0000000   0.0000000), wk =   0.1000000
        k(   10) = (   0.2250000   0.0000000   0.0000000), wk =   0.1000000
        k(   11) = (   0.2500000   0.0000000   0.0000000), wk =   0.1000000
        k(   12) = (   0.2750000   0.0000000   0.0000000), wk =   0.1000000
        k(   13) = (   0.3000000   0.0000000   0.0000000), wk =   0.1000000
        k(   14) = (   0.3250000   0.0000000   0.0000000), wk =   0.1000000
        k(   15) = (   0.3500000   0.0000000   0.0000000), wk =   0.1000000
        k(   16) = (   0.3750000   0.0000000   0.0000000), wk =   0.1000000
        k(   17) = (   0.4000000   0.0000000   0.0000000), wk =   0.1000000
        k(   18) = (   0.4250000   0.0000000   0.0000000), wk =   0.1000000
        k(   19) = (   0.4500000   0.0000000   0.0000000), wk =   0.1000000
        k(   20) = (   0.4750000   0.0000000   0.0000000), wk =   0.1000000
        k(   21) = (  -0.5000000   0.0000000   0.0000000), wk =   0.0500000

     Dense  grid:   521949 G-vectors     FFT dimensions: (  45, 160, 150)

     Estimated max dynamical RAM per process >      59.96 MB

     Estimated total dynamical RAM >       1.76 GB

     Initial potential from superposition of free atoms

     starting charge   43.61466, renormalised to   44.00000

     negative rho (up, down):  6.493E-04 0.000E+00
     Starting wfcs are   44 randomized atomic wfcs

     total cpu time spent up to now is        4.3 secs

     Self-consistent Calculation

     iteration #  1     ecut=    90.00 Ry     beta= 0.30
     Davidson diagonalization with overlap
     ethr =  1.00E-02,  avg # of iterations =  2.0

     total cpu time spent up to now is       12.8 secs

     total energy              =    -119.47070339 Ry
     estimated scf accuracy    <       3.44736059 Ry

     iteration #  2     ecut=    90.00 Ry     beta= 0.30
     Davidson diagonalization with overlap
     ethr =  7.83E-03,  avg # of iterations =  1.0

     negative rho (up, down):  5.431E-04 0.000E+00

     total cpu time spent up to now is       17.3 secs

     total energy              =    -118.15978783 Ry
     estimated scf accuracy    <       2.39378411 Ry

     iteration #  3     ecut=    90.00 Ry     beta= 0.30
     Davidson diagonalization with overlap
     ethr =  5.44E-03,  avg # of iterations =  3.4

     total cpu time spent up to now is       23.7 secs

     total energy              =    -118.68239993 Ry
     estimated scf accuracy    <       0.35126651 Ry

     iteration #  4     ecut=    90.00 Ry     beta= 0.30
     Davidson diagonalization with overlap
     ethr =  7.98E-04,  avg # of iterations =  2.0

     total cpu time spent up to now is       28.7 secs

     total energy              =    -118.66601462 Ry
     estimated scf accuracy    <       0.23392257 Ry

     iteration #  5     ecut=    90.00 Ry     beta= 0.30
     Davidson diagonalization with overlap
     ethr =  5.32E-04,  avg # of iterations =  1.0

     negative rho (up, down):  9.205E-04 0.000E+00

     total cpu time spent up to now is       33.8 secs

     total energy              =    -118.62475260 Ry
     estimated scf accuracy    <       0.15241287 Ry

     iteration #  6     ecut=    90.00 Ry     beta= 0.30
     Davidson diagonalization with overlap
     ethr =  3.46E-04,  avg # of iterations =  1.8

     negative rho (up, down):  9.673E-03 0.000E+00

     total cpu time spent up to now is       39.0 secs

     total energy              =    -118.61036021 Ry
     estimated scf accuracy    <       0.08140866 Ry

     iteration #  7     ecut=    90.00 Ry     beta= 0.30
     Davidson diagonalization with overlap
     ethr =  1.85E-04,  avg # of iterations =  1.4

     negative rho (up, down):  1.187E-01 0.000E+00

     total cpu time spent up to now is       44.5 secs

     total energy              =    -118.59856287 Ry
     estimated scf accuracy    <       0.04811672 Ry

     iteration #  8     ecut=    90.00 Ry     beta= 0.30
     Davidson diagonalization with overlap
     ethr =  1.09E-04,  avg # of iterations =  2.4

     negative rho (up, down):  8.076E-02 0.000E+00

     total cpu time spent up to now is       50.9 secs

     total energy              =    -118.59430924 Ry
     estimated scf accuracy    <       0.03586570 Ry

     iteration #  9     ecut=    90.00 Ry     beta= 0.30
     Davidson diagonalization with overlap
     ethr =  8.15E-05,  avg # of iterations =  1.3

     negative rho (up, down):  1.353E-01 0.000E+00

     total cpu time spent up to now is       56.1 secs

     total energy              =    -118.59145457 Ry
     estimated scf accuracy    <       0.01295600 Ry

     iteration # 10     ecut=    90.00 Ry     beta= 0.30
     Davidson diagonalization with overlap
     ethr =  2.94E-05,  avg # of iterations =  3.6

     negative rho (up, down):  5.969E-02 0.000E+00

     total cpu time spent up to now is       63.4 secs

     total energy              =    -118.59274689 Ry
     estimated scf accuracy    <       0.00407951 Ry

     iteration # 11     ecut=    90.00 Ry     beta= 0.30
     Davidson diagonalization with overlap
     ethr =  9.27E-06,  avg # of iterations =  2.5

     negative rho (up, down):  3.169E-02 0.000E+00

     total cpu time spent up to now is       69.7 secs

     total energy              =    -118.59258947 Ry
     estimated scf accuracy    <       0.00128641 Ry

     iteration # 12     ecut=    90.00 Ry     beta= 0.30
     Davidson diagonalization with overlap
     ethr =  2.92E-06,  avg # of iterations =  4.0

     negative rho (up, down):  2.794E-02 0.000E+00

     total cpu time spent up to now is       78.2 secs

     total energy              =    -118.59239553 Ry
     estimated scf accuracy    <       0.00138947 Ry

     iteration # 13     ecut=    90.00 Ry     beta= 0.30
     Davidson diagonalization with overlap
     ethr =  2.92E-06,  avg # of iterations =  2.2

     negative rho (up, down):  8.136E-03 0.000E+00

     total cpu time spent up to now is       86.0 secs

     total energy              =    -118.59223821 Ry
     estimated scf accuracy    <       0.00049262 Ry

     iteration # 14     ecut=    90.00 Ry     beta= 0.30
     Davidson diagonalization with overlap
     ethr =  1.12E-06,  avg # of iterations =  4.1

     negative rho (up, down):  8.469E-03 0.000E+00

     total cpu time spent up to now is       94.6 secs

     total energy              =    -118.59235928 Ry
     estimated scf accuracy    <       0.00017951 Ry

     iteration # 15     ecut=    90.00 Ry     beta= 0.30
     Davidson diagonalization with overlap
     ethr =  4.08E-07,  avg # of iterations =  1.3

     negative rho (up, down):  4.459E-03 0.000E+00

     total cpu time spent up to now is      100.9 secs

     total energy              =    -118.59235756 Ry
     estimated scf accuracy    <       0.00010350 Ry

     iteration # 16     ecut=    90.00 Ry     beta= 0.30
     Davidson diagonalization with overlap
     ethr =  2.35E-07,  avg # of iterations =  3.9

     negative rho (up, down):  2.722E-03 0.000E+00

     total cpu time spent up to now is      111.2 secs

     total energy              =    -118.59238988 Ry
     estimated scf accuracy    <       0.00003510 Ry

     iteration # 17     ecut=    90.00 Ry     beta= 0.30
     Davidson diagonalization with overlap
     ethr =  7.98E-08,  avg # of iterations =  2.0

     negative rho (up, down):  1.059E-03 0.000E+00

     total cpu time spent up to now is      119.6 secs

     total energy              =    -118.59238141 Ry
     estimated scf accuracy    <       0.00000931 Ry

     iteration # 18     ecut=    90.00 Ry     beta= 0.30
     Davidson diagonalization with overlap
     ethr =  2.12E-08,  avg # of iterations =  3.2

     negative rho (up, down):  8.003E-04 0.000E+00

     total cpu time spent up to now is      128.0 secs

     total energy              =    -118.59238207 Ry
     estimated scf accuracy    <       0.00000075 Ry

     iteration # 19     ecut=    90.00 Ry     beta= 0.30
     Davidson diagonalization with overlap
     ethr =  1.69E-09,  avg # of iterations =  4.8

     negative rho (up, down):  6.468E-04 0.000E+00

     total cpu time spent up to now is      137.2 secs

     total energy              =    -118.59238179 Ry
     estimated scf accuracy    <       0.00000024 Ry

     iteration # 20     ecut=    90.00 Ry     beta= 0.30
     Davidson diagonalization with overlap
     ethr =  5.47E-10,  avg # of iterations =  2.2

     negative rho (up, down):  5.845E-04 0.000E+00

     total cpu time spent up to now is      145.0 secs

     total energy              =    -118.59238137 Ry
     estimated scf accuracy    <       0.00000029 Ry

     iteration # 21     ecut=    90.00 Ry     beta= 0.30
     Davidson diagonalization with overlap
     ethr =  5.47E-10,  avg # of iterations =  3.1

     negative rho (up, down):  5.712E-04 0.000E+00

     total cpu time spent up to now is      154.0 secs

     total energy              =    -118.59238137 Ry
     estimated scf accuracy    <       0.00000003 Ry

     iteration # 22     ecut=    90.00 Ry     beta= 0.30
     Davidson diagonalization with overlap
     ethr =  7.42E-11,  avg # of iterations =  4.0

     negative rho (up, down):  5.414E-04 0.000E+00

     total cpu time spent up to now is      166.0 secs

     total energy              =    -118.59238140 Ry
     estimated scf accuracy    <       0.00000001 Ry

     iteration # 23     ecut=    90.00 Ry     beta= 0.30
     Davidson diagonalization with overlap
     ethr =  3.17E-11,  avg # of iterations =  3.5

     negative rho (up, down):  5.130E-04 0.000E+00

     total cpu time spent up to now is      172.3 secs

     End of self-consistent calculation

          k = 0.0000 0.0000 0.0000 (100445 PWs)   bands (ev):

   -21.9121 -20.3886 -18.1038 -16.7188 -15.8875 -15.7427 -15.3036 -13.0752
   -13.0476 -12.2202 -10.9833 -10.4971 -10.0641  -9.9503  -8.7510  -8.2822
    -7.9477  -6.7962  -6.2500  -5.7670  -4.5959  -3.1020

          k = 0.0250 0.0000 0.0000 (100451 PWs)   bands (ev):

   -21.9084 -20.3851 -18.1018 -16.7821 -15.9215 -15.6743 -15.2839 -13.1098
   -13.0265 -12.1954 -10.9682 -10.5263 -10.0467  -9.9459  -8.7412  -8.2782
    -7.9613  -6.7994  -6.2587  -5.7652  -4.6237  -3.1806

          k = 0.0500 0.0000 0.0000 (100405 PWs)   bands (ev):

   -21.8975 -20.3747 -18.0959 -16.9358 -16.0117 -15.5052 -15.2353 -13.2021
   -12.9646 -12.1322 -10.9236 -10.6030 -10.0042  -9.9327  -8.7129  -8.2660
    -8.0011  -6.8096  -6.2846  -5.7600  -4.7038  -3.3423

          k = 0.0750 0.0000 0.0000 (100415 PWs)   bands (ev):

   -21.8793 -20.3574 -18.0870 -17.1292 -16.1382 -15.2853 -15.1744 -13.3312
   -12.8654 -12.0497 -10.8511 -10.7095  -9.9511  -9.9108  -8.6697  -8.2458
    -8.0650  -6.8290  -6.3271  -5.7514  -4.8277  -3.5284

          k = 0.1000 0.0000 0.0000 (100401 PWs)   bands (ev):

   -21.8538 -20.3332 -18.0775 -17.3348 -16.2867 -15.1104 -15.0406 -13.4810
   -12.7344 -11.9614 -10.8343 -10.7535  -9.8943  -9.8801  -8.6164  -8.2176
    -8.1497  -6.8603  -6.3853  -5.7401  -4.9847  -3.7232

          k = 0.1250 0.0000 0.0000 (100453 PWs)   bands (ev):

   -21.8210 -20.3022 -18.0733 -17.5354 -16.4490 -15.0466 -14.7830 -13.6410
   -12.5772 -11.8730 -10.9703 -10.6352  -9.8407  -9.8358  -8.5584  -8.2517
    -8.1813  -6.9062  -6.4580  -5.7270  -5.1644  -3.9220

          k = 0.1500 0.0000 0.0000 (100437 PWs)   bands (ev):

   -21.7809 -20.2643 -18.0933 -17.7074 -16.6200 -14.9832 -14.5200 -13.8036
   -12.4001 -11.7858 -11.1127 -10.5011  -9.7926  -9.7754  -8.5007  -8.3676
    -8.1371  -6.9692  -6.5439  -5.7157  -5.3558  -4.1226

          k = 0.1750 0.0000 0.0000 (100468 PWs)   bands (ev):

   -21.7337 -20.2197 -18.1789 -17.8071 -16.7959 -14.9197 -14.2679 -13.9518
   -12.2098 -11.6989 -11.2563 -10.3563  -9.7359  -9.7123  -8.4943  -8.4480
    -8.0849  -7.0510  -6.6415  -5.7252  -5.5343  -4.3235

          k = 0.2000 0.0000 0.0000 (100478 PWs)   bands (ev):

   -21.6792 -20.1684 -18.3370 -17.8263 -16.9742 -14.8551 -14.1985 -13.9133
   -12.0171 -11.6107 -11.3921 -10.2059  -9.6705  -9.6456  -8.6288  -8.4042
    -8.0249  -7.1524  -6.7491  -5.8423  -5.6091  -4.5239

          k = 0.2250 0.0000 0.0000 (100498 PWs)   bands (ev):

   -21.6175 -20.1106 -18.5254 -17.8066 -17.1531 -14.7889 -14.3385 -13.6614
   -11.8577 -11.5195 -11.4857 -10.0542  -9.5965  -9.5750  -8.7684  -8.3727
    -7.9572  -7.2739  -6.8650  -6.0417  -5.6028  -4.7230

          k = 0.2500 0.0000 0.0000 (100466 PWs)   bands (ev):

   -21.5486 -20.0463 -18.7214 -17.7709 -17.3309 -14.7208 -14.4943 -13.3899
   -11.8435 -11.4265 -11.4239  -9.9056  -9.5139  -9.4998  -8.9103  -8.3560
    -7.8818  -7.4148  -6.9878  -6.2555  -5.5813  -4.9201

          k = 0.2750 0.0000 0.0000 (100484 PWs)   bands (ev):

   -21.4727 -19.9758 -18.9171 -17.7270 -17.5064 -14.6506 -14.6473 -13.1176
   -11.9504 -11.3225 -11.2395  -9.7649  -9.4229  -9.4199  -9.0505  -8.3563
    -7.7988  -7.5741  -7.1158  -6.4715  -5.5559  -5.1146

          k = 0.3000 0.0000 0.0000 (100486 PWs)   bands (ev):

   -21.3897 -19.8994 -19.1098 -17.6786 -17.6785 -14.7940 -14.5785 -12.8489
   -12.0832 -11.2146 -11.0207  -9.6404  -9.3354  -9.3234  -9.1815  -8.3751
    -7.7502  -7.7085  -7.2475  -6.6861  -5.5292  -5.3058

          k = 0.3250 0.0000 0.0000 (100454 PWs)   bands (ev):

   -21.2997 -19.8173 -19.2978 -17.8461 -17.6277 -14.9318 -14.5053 -12.5875
   -12.2184 -11.0997 -10.7940  -9.5573  -9.2781  -9.2464  -9.2156  -8.4132
    -7.9408  -7.6111  -7.3813  -6.8977  -5.5027  -5.4932

          k = 0.3500 0.0000 0.0000 (100468 PWs)   bands (ev):

   -21.2029 -19.7303 -19.4804 -18.0081 -17.5764 -15.0589 -14.4321 -12.3490
   -12.3371 -10.9784 -10.5665  -9.5757  -9.2791  -9.1534  -9.0996  -8.4708
    -8.1433  -7.5156  -7.5068  -7.1052  -5.6761  -5.4774

          k = 0.3750 0.0000 0.0000 (100538 PWs)   bands (ev):

   -21.0994 -19.6569 -19.6392 -18.1633 -17.5267 -15.1731 -14.3605 -12.4710
   -12.1022 -10.8532 -10.3421  -9.6640  -9.2130  -9.0577  -8.9756  -8.5473
    -8.3538  -7.6486  -7.3962  -7.3075  -5.8537  -5.4542

          k = 0.4000 0.0000 0.0000 (100482 PWs)   bands (ev):

   -20.9895 -19.8267 -19.5458 -18.3095 -17.4808 -15.2719 -14.2930 -12.5809
   -11.8880 -10.7314 -10.1244  -9.7517  -9.1439  -8.9612  -8.8436  -8.6409
    -8.5666  -7.7778  -7.5041  -7.2800  -6.0251  -5.4339

          k = 0.4250 0.0000 0.0000 (100540 PWs)   bands (ev):

   -20.8741 -19.9890 -19.4531 -18.4435 -17.4413 -15.3527 -14.2330 -12.6744
   -11.7015 -10.6281  -9.9173  -9.8047  -9.0977  -8.8720  -8.7680  -8.7439
    -8.7040  -7.8995  -7.6943  -7.1599  -6.1883  -5.4173

          k = 0.4500 0.0000 0.0000 (100530 PWs)   bands (ev):

   -20.7549 -20.1417 -19.3674 -18.5588 -17.4106 -15.4130 -14.1849 -12.7468
   -11.5517 -10.5635  -9.7971  -9.7280  -9.1225  -8.9066  -8.8876  -8.7588
    -8.5576  -8.0071  -7.8771  -7.0396  -6.3395  -5.4050

          k = 0.4750 0.0000 0.0000 (100570 PWs)   bands (ev):

   -20.6395 -20.2773 -19.3013 -18.6427 -17.3910 -15.4503 -14.1533 -12.7930
   -11.4515 -10.5415  -9.7299  -9.5736  -9.2492  -8.9929  -8.9341  -8.6967
    -8.4072  -8.0875  -8.0493  -6.9317  -6.4660  -5.3974

          k =-0.5000 0.0000 0.0000 (100544 PWs)   bands (ev):

   -20.5730 -20.3504 -19.2751 -18.6748 -17.3843 -15.4629 -14.1422 -12.8090
   -11.4156 -10.5392  -9.6761  -9.5048  -9.3299  -9.0468  -8.9336  -8.6701
    -8.2956  -8.1683  -8.1188  -6.8791  -6.5248  -5.3948

     highest occupied level (ev):    -3.1020

!    total energy              =    -118.59238140 Ry
     estimated scf accuracy    <          5.1E-09 Ry

     The total energy is the sum of the following terms:
     one-electron contribution =    -804.07155768 Ry
     hartree contribution      =     407.78622333 Ry
     xc contribution           =     -37.97419010 Ry
     ewald contribution        =     315.66714306 Ry

     convergence has been achieved in  23 iterations

     Forces acting on atoms (cartesian axes, Ry/au):

     atom    1 type  1   force =     0.00962355   -0.01997562    0.00000000
     atom    2 type  1   force =     0.00168845   -0.00076618    0.00000000
     atom    3 type  1   force =    -0.00962355   -0.01997562    0.00000000
     atom    4 type  1   force =    -0.00043218    0.00006195    0.00000000
     atom    5 type  1   force =     0.00167543    0.00087213    0.00000000
     atom    6 type  1   force =    -0.00168845   -0.00076618    0.00000000
     atom    7 type  1   force =     0.00043218    0.00006195    0.00000000
     atom    8 type  1   force =     0.00964436    0.02013854    0.00000000
     atom    9 type  1   force =    -0.00167543    0.00087213    0.00000000
     atom   10 type  1   force =    -0.00964436    0.02013854    0.00000000
     atom   11 type  2   force =    -0.00523195    0.00399804    0.00000000
     atom   12 type  2   force =     0.00523195    0.00399804    0.00000000
     atom   13 type  2   force =    -0.00523813   -0.00432885    0.00000000
     atom   14 type  2   force =     0.00523813   -0.00432885    0.00000000

     Total force =     0.046625     Total SCF correction =     0.000088


     Computing stress (Cartesian axis) and pressure

          total   stress  (Ry/bohr**3)                   (kbar)     P=        4.96
   0.00006233   0.00000000   0.00000000            9.17        0.00        0.00
   0.00000000   0.00003867   0.00000000            0.00        5.69        0.00
   0.00000000   0.00000000   0.00000006            0.00        0.00        0.01


     BFGS Geometry Optimization
     Energy error            =      0.0E+00
     Gradient error          =      2.0E-02
     Cell gradient error     =      6.2E-05


     number of scf cycles    =   1
     number of bfgs steps    =   0

     enthalpy new            =    -118.5923813955 Ry

     new trust radius        =       0.0260176590 bohr
     new conv_thr            =       0.0000000100 Ry

     new unit-cell volume =   6987.09647 a.u.^3 (  1035.38087 Ang^3 )
     density =      0.19909 g/cm^3

CELL_PARAMETERS (alat=  8.05510878)
   1.001558253   0.000000000   0.000000000
   0.000000000   3.793035770   0.000000000
   0.000000000   0.000000000   3.519000734

ATOMIC_POSITIONS (crystal)
C             0.6606768131        0.3115500305        0.5000000000    1   1   0
C             0.8335291308        0.3861165409        0.5000000000    1   1   0
C             0.3393231869        0.3115500305        0.5000000000    1   1   0
C             0.6668756481        0.4619127225        0.5000000000    1   1   0
C             0.8335280396        0.5377057881        0.5000000000    1   1   0
C             0.1664708692        0.3861165409        0.5000000000    1   1   0
C             0.3331243519        0.4619127225        0.5000000000    1   1   0
C             0.6606782745        0.6122747959        0.5000000000    1   1   0
C             0.1664719604        0.5377057881        0.5000000000    1   1   0
C             0.3393217255        0.6122747959        0.5000000000    1   1   0
H             0.7815779404        0.2530303721        0.5000000000    1   1   0
H             0.2184220596        0.2530303721        0.5000000000    1   1   0
H             0.7815776128        0.6707790831        0.5000000000    1   1   0
H             0.2184223872        0.6707790831        0.5000000000    1   1   0



     Writing output data file ./5AGNR.save/
     NEW-OLD atomic charge density approx. for the potential

     negative rho (up, down):  8.954E-04 0.000E+00
     extrapolated charge   44.10998, renormalised to   44.00000

     total cpu time spent up to now is      177.0 secs

     Self-consistent Calculation

     iteration #  1     ecut=    90.00 Ry     beta= 0.30
     Davidson diagonalization with overlap
     ethr =  1.00E-06,  avg # of iterations =  7.3

     negative rho (up, down):  1.309E-03 0.000E+00

     total cpu time spent up to now is      191.5 secs

     total energy              =    -118.59172644 Ry
     estimated scf accuracy    <       0.00453908 Ry

     iteration #  2     ecut=    90.00 Ry     beta= 0.30
     Davidson diagonalization with overlap
     ethr =  1.03E-05,  avg # of iterations =  2.8

     negative rho (up, down):  1.026E-03 0.000E+00

     total cpu time spent up to now is      202.9 secs

     total energy              =    -118.59347862 Ry
     estimated scf accuracy    <       0.00050580 Ry

     iteration #  3     ecut=    90.00 Ry     beta= 0.30
     Davidson diagonalization with overlap
     ethr =  1.15E-06,  avg # of iterations =  3.8

     negative rho (up, down):  6.557E-04 0.000E+00

     total cpu time spent up to now is      212.8 secs

     total energy              =    -118.59348706 Ry
     estimated scf accuracy    <       0.00019809 Ry

     iteration #  4     ecut=    90.00 Ry     beta= 0.30
     Davidson diagonalization with overlap
     ethr =  4.50E-07,  avg # of iterations =  2.0

     negative rho (up, down):  4.365E-04 0.000E+00

     total cpu time spent up to now is      220.7 secs

     total energy              =    -118.59347998 Ry
     estimated scf accuracy    <       0.00004184 Ry

     iteration #  5     ecut=    90.00 Ry     beta= 0.30
     Davidson diagonalization with overlap
     ethr =  9.51E-08,  avg # of iterations =  2.3

     negative rho (up, down):  4.066E-04 0.000E+00

     total cpu time spent up to now is      229.3 secs

     total energy              =    -118.59348744 Ry
     estimated scf accuracy    <       0.00000380 Ry

     iteration #  6     ecut=    90.00 Ry     beta= 0.30
     Davidson diagonalization with overlap
     ethr =  8.64E-09,  avg # of iterations =  3.2

     negative rho (up, down):  3.868E-04 0.000E+00

     total cpu time spent up to now is      236.7 secs

     total energy              =    -118.59348720 Ry
     estimated scf accuracy    <       0.00000297 Ry

     iteration #  7     ecut=    90.00 Ry     beta= 0.30
     Davidson diagonalization with overlap
     ethr =  6.75E-09,  avg # of iterations =  1.6

     negative rho (up, down):  3.812E-04 0.000E+00

     total cpu time spent up to now is      244.1 secs

     total energy              =    -118.59348696 Ry
     estimated scf accuracy    <       0.00000153 Ry

     iteration #  8     ecut=    90.00 Ry     beta= 0.30
     Davidson diagonalization with overlap
     ethr =  3.48E-09,  avg # of iterations =  2.6

     negative rho (up, down):  4.150E-04 0.000E+00

     total cpu time spent up to now is      252.1 secs

     total energy              =    -118.59348686 Ry
     estimated scf accuracy    <       0.00000051 Ry

     iteration #  9     ecut=    90.00 Ry     beta= 0.30
     Davidson diagonalization with overlap
     ethr =  1.17E-09,  avg # of iterations =  4.0

     negative rho (up, down):  4.352E-04 0.000E+00

     total cpu time spent up to now is      261.7 secs

     total energy              =    -118.59348704 Ry
     estimated scf accuracy    <       0.00000018 Ry

     iteration # 10     ecut=    90.00 Ry     beta= 0.30
     Davidson diagonalization with overlap
     ethr =  4.16E-10,  avg # of iterations =  1.1

     negative rho (up, down):  4.775E-04 0.000E+00

     total cpu time spent up to now is      269.2 secs

     total energy              =    -118.59348699 Ry
     estimated scf accuracy    <       0.00000016 Ry

     iteration # 11     ecut=    90.00 Ry     beta= 0.30
     Davidson diagonalization with overlap
     ethr =  3.65E-10,  avg # of iterations =  3.3

     negative rho (up, down):  4.771E-04 0.000E+00

     total cpu time spent up to now is      277.5 secs

     total energy              =    -118.59348703 Ry
     estimated scf accuracy    <       0.00000001 Ry

     iteration # 12     ecut=    90.00 Ry     beta= 0.30
     Davidson diagonalization with overlap
     ethr =  2.81E-11,  avg # of iterations =  4.1

     negative rho (up, down):  4.955E-04 0.000E+00

     total cpu time spent up to now is      285.7 secs

     total energy              =    -118.59348701 Ry
     estimated scf accuracy    <       0.00000001 Ry

     iteration # 13     ecut=    90.00 Ry     beta= 0.30
     Davidson diagonalization with overlap
     ethr =  2.49E-11,  avg # of iterations =  3.9

     negative rho (up, down):  5.164E-04 0.000E+00

     total cpu time spent up to now is      292.4 secs

     End of self-consistent calculation

          k = 0.0000 0.0000 0.0000 (100445 PWs)   bands (ev):

   -21.8590 -20.3247 -18.0841 -16.6845 -15.8793 -15.7152 -15.2628 -13.1067
   -13.0168 -12.1979 -10.9830 -10.5914 -10.0590  -9.9091  -8.7473  -8.2299
    -8.0622  -6.7906  -6.3182  -5.7475  -4.5796  -3.1191

          k = 0.0250 0.0000 0.0000 (100451 PWs)   bands (ev):

   -21.8554 -20.3212 -18.0818 -16.7481 -15.9103 -15.6467 -15.2465 -13.1392
   -12.9954 -12.1757 -10.9675 -10.6167 -10.0453  -9.9047  -8.7375  -8.2259
    -8.0750  -6.7942  -6.3267  -5.7457  -4.6074  -3.1927

          k = 0.0499 0.0000 0.0000 (100405 PWs)   bands (ev):

   -21.8445 -20.3108 -18.0754 -16.9025 -15.9942 -15.4775 -15.2053 -13.2270
   -12.9326 -12.1180 -10.9216 -10.6854 -10.0100  -9.8916  -8.7095  -8.2138
    -8.1129  -6.8058  -6.3521  -5.7402  -4.6876  -3.3483

          k = 0.0749 0.0000 0.0000 (100415 PWs)   bands (ev):

   -21.8263 -20.2934 -18.0654 -17.0970 -16.1143 -15.2579 -15.1522 -13.3518
   -12.8324 -12.0417 -10.8472 -10.7846  -9.9632  -9.8698  -8.6666  -8.1937
    -8.1737  -6.8270  -6.3938  -5.7314  -4.8114  -3.5296

          k = 0.0998 0.0000 0.0000 (100401 PWs)   bands (ev):

   -21.8008 -20.2691 -18.0538 -17.3044 -16.2576 -15.0950 -15.0137 -13.4980
   -12.7004 -11.9586 -10.9034 -10.7477  -9.9109  -9.8392  -8.6135  -8.2548
    -8.1655  -6.8602  -6.4510  -5.7195  -4.9684  -3.7206

          k = 0.1248 0.0000 0.0000 (100453 PWs)   bands (ev):

   -21.7680 -20.2379 -18.0455 -17.5087 -16.4160 -15.0367 -14.7569 -13.6555
   -12.5428 -11.8744 -11.0347 -10.6274  -9.8554  -9.8000  -8.5554  -8.3529
    -8.1294  -6.9080  -6.5224  -5.7055  -5.1484  -3.9160

          k = 0.1498 0.0000 0.0000 (100437 PWs)   bands (ev):

   -21.7280 -20.1999 -18.0570 -17.6887 -16.5838 -14.9777 -14.4948 -13.8162
   -12.3661 -11.7903 -11.1726 -10.4918  -9.7971  -9.7521  -8.4973  -8.4648
    -8.0854  -6.9725  -6.6069  -5.6923  -5.3409  -4.1134

          k = 0.1747 0.0000 0.0000 (100468 PWs)   bands (ev):

   -21.6808 -20.1551 -18.1329 -17.7975 -16.7574 -14.9175 -14.2457 -13.9614
   -12.1785 -11.7054 -11.3107 -10.3460  -9.7354  -9.6955  -8.5875  -8.4439
    -8.0335  -7.0553  -6.7029  -5.6965  -5.5237  -4.3116

          k = 0.1997 0.0000 0.0000 (100478 PWs)   bands (ev):

   -21.6263 -20.1036 -18.2892 -17.8178 -16.9341 -14.8554 -14.2012 -13.8986
   -11.9949 -11.6184 -11.4353 -10.1952  -9.6699  -9.6304  -8.7179  -8.3991
    -7.9737  -7.1574  -6.8088  -5.8136  -5.5975  -4.5094

          k = 0.2246 0.0000 0.0000 (100498 PWs)   bands (ev):

   -21.5646 -20.0454 -18.4785 -17.7966 -17.1117 -14.7910 -14.3459 -13.6431
   -11.8691 -11.5277 -11.4941 -10.0439  -9.6000  -9.5567  -8.8531  -8.3662
    -7.9062  -7.2790  -6.9231  -6.0155  -5.5875  -4.7062

          k = 0.2496 0.0000 0.0000 (100466 PWs)   bands (ev):

   -21.4958 -19.9807 -18.6753 -17.7594 -17.2887 -14.7241 -14.5022 -13.3726
   -11.8979 -11.4317 -11.3913  -9.8972  -9.5255  -9.4744  -8.9895  -8.3479
    -7.8311  -7.4198  -7.0443  -6.2297  -5.5644  -4.9012

          k = 0.2746 0.0000 0.0000 (100484 PWs)   bands (ev):

   -21.4198 -19.9097 -18.8716 -17.7144 -17.4638 -14.6555 -14.6544 -13.1019
   -12.0136 -11.3294 -11.1957  -9.7618  -9.4460  -9.3837  -9.1215  -8.3463
    -7.7484  -7.5789  -7.1708  -6.4455  -5.5381  -5.0937

          k = 0.2995 0.0000 0.0000 (100486 PWs)   bands (ev):

   -21.3368 -19.8325 -19.0645 -17.6648 -17.6358 -14.8023 -14.5825 -12.8355
   -12.1478 -11.2199 -10.9760  -9.6521  -9.3617  -9.2846  -9.2352  -8.3630
    -7.7545  -7.6583  -7.3012  -6.6596  -5.5107  -5.2832

          k = 0.3245 0.0000 0.0000 (100454 PWs)   bands (ev):

   -21.2467 -19.7496 -19.2528 -17.8036 -17.6130 -14.9405 -14.5089 -12.5765
   -12.2838 -11.1029 -10.7498  -9.6082  -9.2904  -9.2727  -9.1773  -8.3987
    -7.9448  -7.5611  -7.4340  -6.8706  -5.4837  -5.4691

          k = 0.3495 0.0000 0.0000 (100468 PWs)   bands (ev):

   -21.1497 -19.6613 -19.4356 -17.9664 -17.5608 -15.0681 -14.4347 -12.4155
   -12.3286 -10.9791 -10.5232  -9.6615  -9.2546  -9.1795  -9.0616  -8.4540
    -8.1469  -7.5678  -7.4569  -7.0774  -5.6508  -5.4579

          k = 0.3744 0.0000 0.0000 (100538 PWs)   bands (ev):

   -21.0459 -19.6125 -19.5685 -18.1228 -17.5102 -15.1827 -14.3617 -12.5390
   -12.0960 -10.8522 -10.3001  -9.7540  -9.1819  -9.0827  -8.9379  -8.5282
    -8.3573  -7.7007  -7.3462  -7.2791  -5.8276  -5.4343

          k = 0.3994 0.0000 0.0000 (100482 PWs)   bands (ev):

   -20.9355 -19.7829 -19.4727 -18.2711 -17.4635 -15.2821 -14.2924 -12.6508
   -11.8835 -10.7316 -10.0838  -9.8367  -9.1138  -8.9838  -8.8063  -8.6202
    -8.5696  -7.8306  -7.4751  -7.2296  -5.9987  -5.4137

          k = 0.4243 0.0000 0.0000 (100540 PWs)   bands (ev):

   -20.8189 -19.9462 -19.3766 -18.4083 -17.4232 -15.3635 -14.2302 -12.7465
   -11.6972 -10.6367  -9.8786  -9.8769  -9.0740  -8.8856  -8.7672  -8.7273
    -8.6669  -7.9540  -7.6649  -7.1083  -6.1625  -5.3968

          k = 0.4493 0.0000 0.0000 (100530 PWs)   bands (ev):

   -20.6975 -20.1011 -19.2860 -18.5284 -17.3919 -15.4243 -14.1798 -12.8211
   -11.5459 -10.5902  -9.8468  -9.6916  -9.1232  -8.8866  -8.8435  -8.7937
    -8.5203  -8.0643  -7.8477  -6.9853  -6.3159  -5.3843

          k = 0.4743 0.0000 0.0000 (100570 PWs)   bands (ev):

   -20.5766 -20.2422 -19.2140 -18.6181 -17.3719 -15.4619 -14.1464 -12.8691
   -11.4429 -10.5866  -9.7536  -9.5404  -9.2712  -8.9518  -8.9025  -8.7211
    -8.3683  -8.1483  -8.0215  -6.8714  -6.4482  -5.3766

          k =-0.4992 0.0000 0.0000 (100544 PWs)   bands (ev):

   -20.5000 -20.3255 -19.1845 -18.6535 -17.3651 -15.4747 -14.1347 -12.8858
   -11.4055 -10.5918  -9.6830  -9.4738  -9.3640  -9.0042  -8.9005  -8.6915
    -8.2469  -8.1818  -8.1502  -6.8123  -6.5135  -5.3740

     highest occupied level (ev):    -3.1191

!    total energy              =    -118.59348701 Ry
     estimated scf accuracy    <          5.8E-09 Ry

     The total energy is the sum of the following terms:
     one-electron contribution =    -800.98636736 Ry
     hartree contribution      =     406.23473814 Ry
     xc contribution           =     -37.93915662 Ry
     ewald contribution        =     314.09729884 Ry

     convergence has been achieved in  13 iterations

     Forces acting on atoms (cartesian axes, Ry/au):

     atom    1 type  1   force =    -0.01846103    0.00753530    0.00000000
     atom    2 type  1   force =    -0.00328171   -0.00775706    0.00000000
     atom    3 type  1   force =     0.01846103    0.00753530    0.00000000
     atom    4 type  1   force =    -0.00032481    0.00005483    0.00000000
     atom    5 type  1   force =    -0.00329331    0.00787462    0.00000000
     atom    6 type  1   force =     0.00328171   -0.00775706    0.00000000
     atom    7 type  1   force =     0.00032481    0.00005483    0.00000000
     atom    8 type  1   force =    -0.01857859   -0.00766779    0.00000000
     atom    9 type  1   force =     0.00329331    0.00787462    0.00000000
     atom   10 type  1   force =     0.01857859   -0.00766779    0.00000000
     atom   11 type  2   force =     0.00369293   -0.01107678    0.00000000
     atom   12 type  2   force =    -0.00369293   -0.01107678    0.00000000
     atom   13 type  2   force =     0.00382121    0.01103689    0.00000000
     atom   14 type  2   force =    -0.00382121    0.01103689    0.00000000

     Total force =     0.049360     Total SCF correction =     0.000181


     Computing stress (Cartesian axis) and pressure

          total   stress  (Ry/bohr**3)                   (kbar)     P=        3.61
   0.00004188   0.00000000   0.00000000            6.16        0.00        0.00
   0.00000000   0.00003164   0.00000000            0.00        4.65        0.00
   0.00000000   0.00000000   0.00000007            0.00        0.00        0.01

     Energy error            =      1.1E-03
     Gradient error          =      1.9E-02
     Cell gradient error     =      4.2E-05


     number of scf cycles    =   2
     number of bfgs steps    =   1

     enthalpy old            =    -118.5923813955 Ry
     enthalpy new            =    -118.5934870082 Ry

     CASE: enthalpy_new < enthalpy_old

     new trust radius        =       0.0267578762 bohr
     new conv_thr            =       0.0000000011 Ry

     new unit-cell volume =   7006.01470 a.u.^3 (  1038.18427 Ang^3 )
     density =      0.19856 g/cm^3

CELL_PARAMETERS (alat=  8.05510878)
   1.003161312   0.000000000   0.000000000
   0.000000000   3.797220312   0.000000000
   0.000000000   0.000000000   3.519007917

ATOMIC_POSITIONS (crystal)
C             0.6595117870        0.3114076974        0.5000000000    1   1   0
C             0.8333206235        0.3859072328        0.5000000000    1   1   0
C             0.3404882130        0.3114076974        0.5000000000    1   1   0
C             0.6668171262        0.4619151451        0.5000000000    1   1   0
C             0.8333175937        0.5379198419        0.5000000000    1   1   0
C             0.1666793765        0.3859072328        0.5000000000    1   1   0
C             0.3331828738        0.4619151451        0.5000000000    1   1   0
C             0.6595032718        0.6124164901        0.5000000000    1   1   0
C             0.1666824063        0.5379198419        0.5000000000    1   1   0
C             0.3404967282        0.6124164901        0.5000000000    1   1   0
H             0.7816019457        0.2528164370        0.5000000000    1   1   0
H             0.2183980543        0.2528164370        0.5000000000    1   1   0
H             0.7816135496        0.6709864888        0.5000000000    1   1   0
H             0.2183864504        0.6709864888        0.5000000000    1   1   0



     Writing output data file ./5AGNR.save/
     NEW-OLD atomic charge density approx. for the potential

     negative rho (up, down):  4.973E-04 0.000E+00
     extrapolated charge   44.11777, renormalised to   44.00000

     total cpu time spent up to now is      297.2 secs

     Self-consistent Calculation

     iteration #  1     ecut=    90.00 Ry     beta= 0.30
     Davidson diagonalization with overlap
     ethr =  1.00E-06,  avg # of iterations =  6.7

     negative rho (up, down):  9.559E-04 0.000E+00

     total cpu time spent up to now is      310.5 secs

     total energy              =    -118.59259499 Ry
     estimated scf accuracy    <       0.00433826 Ry

     iteration #  2     ecut=    90.00 Ry     beta= 0.30
     Davidson diagonalization with overlap
     ethr =  9.86E-06,  avg # of iterations =  3.4

     negative rho (up, down):  8.748E-04 0.000E+00

     total cpu time spent up to now is      320.3 secs

     total energy              =    -118.59466192 Ry
     estimated scf accuracy    <       0.00020356 Ry

     iteration #  3     ecut=    90.00 Ry     beta= 0.30
     Davidson diagonalization with overlap
     ethr =  4.63E-07,  avg # of iterations =  4.0

     negative rho (up, down):  7.609E-04 0.000E+00

     total cpu time spent up to now is      331.1 secs

     total energy              =    -118.59470949 Ry
     estimated scf accuracy    <       0.00005736 Ry

     iteration #  4     ecut=    90.00 Ry     beta= 0.30
     Davidson diagonalization with overlap
     ethr =  1.30E-07,  avg # of iterations =  3.4

     negative rho (up, down):  6.160E-04 0.000E+00

     total cpu time spent up to now is      340.0 secs

     total energy              =    -118.59470620 Ry
     estimated scf accuracy    <       0.00001811 Ry

     iteration #  5     ecut=    90.00 Ry     beta= 0.30
     Davidson diagonalization with overlap
     ethr =  4.12E-08,  avg # of iterations =  2.6

     negative rho (up, down):  5.749E-04 0.000E+00

     total cpu time spent up to now is      349.3 secs

     total energy              =    -118.59470926 Ry
     estimated scf accuracy    <       0.00000159 Ry

     iteration #  6     ecut=    90.00 Ry     beta= 0.30
     Davidson diagonalization with overlap
     ethr =  3.62E-09,  avg # of iterations =  3.4

     negative rho (up, down):  5.199E-04 0.000E+00

     total cpu time spent up to now is      358.3 secs

     total energy              =    -118.59470899 Ry
     estimated scf accuracy    <       0.00000106 Ry

     iteration #  7     ecut=    90.00 Ry     beta= 0.30
     Davidson diagonalization with overlap
     ethr =  2.40E-09,  avg # of iterations =  2.8

     negative rho (up, down):  5.193E-04 0.000E+00

     total cpu time spent up to now is      368.1 secs

     total energy              =    -118.59470916 Ry
     estimated scf accuracy    <       0.00000018 Ry

     iteration #  8     ecut=    90.00 Ry     beta= 0.30
     Davidson diagonalization with overlap
     ethr =  4.05E-10,  avg # of iterations =  2.0

     negative rho (up, down):  4.941E-04 0.000E+00

     total cpu time spent up to now is      376.4 secs

     total energy              =    -118.59470913 Ry
     estimated scf accuracy    <       0.00000012 Ry

     iteration #  9     ecut=    90.00 Ry     beta= 0.30
     Davidson diagonalization with overlap
     ethr =  2.68E-10,  avg # of iterations =  3.0

     negative rho (up, down):  4.890E-04 0.000E+00

     total cpu time spent up to now is      385.4 secs

     total energy              =    -118.59470913 Ry
     estimated scf accuracy    <       0.00000003 Ry

     iteration # 10     ecut=    90.00 Ry     beta= 0.30
     Davidson diagonalization with overlap
     ethr =  5.79E-11,  avg # of iterations =  3.9

     negative rho (up, down):  5.032E-04 0.000E+00

     total cpu time spent up to now is      394.1 secs

     total energy              =    -118.59470911 Ry
     estimated scf accuracy    <          7.6E-09 Ry

     iteration # 11     ecut=    90.00 Ry     beta= 0.30
     Davidson diagonalization with overlap
     ethr =  1.73E-11,  avg # of iterations =  2.2

     negative rho (up, down):  5.086E-04 0.000E+00

     total cpu time spent up to now is      403.4 secs

     total energy              =    -118.59470911 Ry
     estimated scf accuracy    <          3.6E-09 Ry

     iteration # 12     ecut=    90.00 Ry     beta= 0.30
     Davidson diagonalization with overlap
     ethr =  8.20E-12,  avg # of iterations =  2.9

     negative rho (up, down):  5.128E-04 0.000E+00

     total cpu time spent up to now is      411.9 secs

     total energy              =    -118.59470911 Ry
     estimated scf accuracy    <          2.5E-09 Ry

     iteration # 13     ecut=    90.00 Ry     beta= 0.30
     Davidson diagonalization with overlap
     ethr =  5.66E-12,  avg # of iterations =  1.5

     negative rho (up, down):  5.201E-04 0.000E+00

     total cpu time spent up to now is      416.4 secs

     End of self-consistent calculation

          k = 0.0000 0.0000 0.0000 (100445 PWs)   bands (ev):

   -21.8227 -20.3178 -18.0937 -16.6574 -15.8997 -15.6951 -15.2529 -13.0914
   -12.9940 -12.1806 -10.9979 -10.5685 -10.0543  -9.8825  -8.7770  -8.2328
    -8.0221  -6.8141  -6.2949  -5.7727  -4.5655  -3.1503

          k = 0.0249 0.0000 0.0000 (100451 PWs)   bands (ev):

   -21.8191 -20.3143 -18.0916 -16.7209 -15.9295 -15.6267 -15.2374 -13.1238
   -12.9730 -12.1582 -10.9826 -10.5946 -10.0398  -9.8781  -8.7671  -8.2288
    -8.0353  -6.8173  -6.3035  -5.7709  -4.5933  -3.2195

          k = 0.0498 0.0000 0.0000 (100405 PWs)   bands (ev):

   -21.8082 -20.3040 -18.0855 -16.8747 -16.0108 -15.4580 -15.1976 -13.2113
   -12.9115 -12.1003 -10.9373 -10.6653 -10.0028  -9.8651  -8.7389  -8.2168
    -8.0742  -6.8277  -6.3290  -5.7657  -4.6735  -3.3700

          k = 0.0748 0.0000 0.0000 (100415 PWs)   bands (ev):

   -21.7901 -20.2868 -18.0760 -17.0684 -16.1280 -15.2392 -15.1456 -13.3354
   -12.8131 -12.0236 -10.8636 -10.7662  -9.9544  -9.8433  -8.6958  -8.1968
    -8.1365  -6.8471  -6.3709  -5.7572  -4.7974  -3.5483

          k = 0.0997 0.0000 0.0000 (100401 PWs)   bands (ev):

   -21.7647 -20.2627 -18.0652 -17.2747 -16.2687 -15.0891 -14.9960 -13.4809
   -12.6832 -11.9403 -10.8866 -10.7649  -9.9009  -9.8129  -8.6424  -8.2193
    -8.1689  -6.8782  -6.4283  -5.7458  -4.9542  -3.7373

          k = 0.1246 0.0000 0.0000 (100453 PWs)   bands (ev):

   -21.7320 -20.2318 -18.0574 -17.4782 -16.4246 -15.0311 -14.7403 -13.6374
   -12.5278 -11.8560 -11.0189 -10.6455  -9.8446  -9.7738  -8.5841  -8.3192
    -8.1330  -6.9236  -6.5000  -5.7325  -5.1337  -3.9313

          k = 0.1495 0.0000 0.0000 (100437 PWs)   bands (ev):

   -21.6922 -20.1942 -18.0670 -17.6601 -16.5902 -14.9722 -14.4795 -13.7969
   -12.3534 -11.7720 -11.1576 -10.5106  -9.7858  -9.7261  -8.5259  -8.4329
    -8.0892  -6.9857  -6.5848  -5.7201  -5.3256  -4.1275

          k = 0.1744 0.0000 0.0000 (100468 PWs)   bands (ev):

   -21.6452 -20.1498 -18.1316 -17.7802 -16.7617 -14.9121 -14.2313 -13.9410
   -12.1677 -11.6873 -11.2962 -10.3654  -9.7238  -9.6698  -8.5572  -8.4724
    -8.0376  -7.0662  -6.6810  -5.7220  -5.5108  -4.3246

          k = 0.1994 0.0000 0.0000 (100478 PWs)   bands (ev):

   -21.5909 -20.0988 -18.2748 -17.8138 -16.9363 -14.8502 -14.1811 -13.8839
   -11.9854 -11.6006 -11.4218 -10.2149  -9.6582  -9.6049  -8.6893  -8.4275
    -7.9782  -7.1660  -6.7872  -5.8148  -5.6089  -4.5214

          k = 0.2243 0.0000 0.0000 (100498 PWs)   bands (ev):

   -21.5295 -20.0413 -18.4575 -17.7997 -17.1120 -14.7861 -14.3229 -13.6310
   -11.8580 -11.5102 -11.4840 -10.0637  -9.5883  -9.5315  -8.8262  -8.3946
    -7.9111  -7.2856  -6.9017  -6.0068  -5.6088  -4.7172

          k = 0.2492 0.0000 0.0000 (100466 PWs)   bands (ev):

   -21.4610 -19.9774 -18.6507 -17.7665 -17.2870 -14.7194 -14.4771 -13.3622
   -11.8834 -11.4147 -11.3862  -9.9163  -9.5138  -9.4497  -8.9648  -8.3764
    -7.8365  -7.4244  -7.0230  -6.2181  -5.5888  -4.9112

          k = 0.2741 0.0000 0.0000 (100484 PWs)   bands (ev):

   -21.3854 -19.9073 -18.8448 -17.7244 -17.4601 -14.6503 -14.6284 -13.0933
   -11.9977 -11.3129 -11.1930  -9.7785  -9.4346  -9.3594  -9.1002  -8.3750
    -7.7544  -7.5816  -7.1495  -6.4321  -5.5641  -5.1027

          k = 0.2991 0.0000 0.0000 (100486 PWs)   bands (ev):

   -21.3028 -19.8312 -19.0360 -17.6775 -17.6301 -14.7730 -14.5790 -12.8287
   -12.1311 -11.2041 -10.9749  -9.6611  -9.3506  -9.2607  -9.2222  -8.3920
    -7.7555  -7.6651  -7.2797  -6.6450  -5.5380  -5.2911

          k = 0.3240 0.0000 0.0000 (100454 PWs)   bands (ev):

   -21.2133 -19.7496 -19.2229 -17.7959 -17.6281 -14.9090 -14.5061 -12.5717
   -12.2661 -11.0879 -10.7499  -9.5967  -9.2980  -9.2620  -9.1538  -8.4282
    -7.9443  -7.5687  -7.4122  -6.8549  -5.5119  -5.4758

          k = 0.3489 0.0000 0.0000 (100468 PWs)   bands (ev):

   -21.1169 -19.6630 -19.4044 -17.9563 -17.5784 -15.0341 -14.4329 -12.3967
   -12.3259 -10.9653 -10.5241  -9.6323  -9.2790  -9.1694  -9.0388  -8.4840
    -8.1453  -7.5453  -7.4656  -7.0606  -5.6562  -5.4870

          k = 0.3738 0.0000 0.0000 (100538 PWs)   bands (ev):

   -21.0138 -19.5800 -19.5724 -18.1101 -17.5302 -15.1462 -14.3610 -12.5190
   -12.0956 -10.8396 -10.3013  -9.7198  -9.2092  -9.0736  -8.9157  -8.5592
    -8.3552  -7.6773  -7.3562  -7.2614  -5.8315  -5.4642

          k = 0.3987 0.0000 0.0000 (100482 PWs)   bands (ev):

   -20.9045 -19.7490 -19.4793 -18.2552 -17.4859 -15.2432 -14.2929 -12.6294
   -11.8857 -10.7201 -10.0847  -9.8009  -9.1383  -8.9760  -8.7848  -8.6527
    -8.5691  -7.8058  -7.4564  -7.2413  -6.0005  -5.4443

          k = 0.4237 0.0000 0.0000 (100540 PWs)   bands (ev):

   -20.7894 -19.9106 -19.3870 -18.3882 -17.4477 -15.3223 -14.2320 -12.7237
   -11.7024 -10.6247  -9.8778  -9.8416  -9.0866  -8.8796  -8.7763  -8.7624
    -8.6464  -7.9272  -7.6450  -7.1226  -6.1617  -5.4279

          k = 0.4486 0.0000 0.0000 (100530 PWs)   bands (ev):

   -20.6705 -20.0628 -19.3015 -18.5030 -17.4182 -15.3813 -14.1829 -12.7970
   -11.5545 -10.5744  -9.8157  -9.6868  -9.1005  -8.9277  -8.8833  -8.7905
    -8.5012  -8.0347  -7.8263  -7.0038  -6.3108  -5.4158

          k = 0.4735 0.0000 0.0000 (100570 PWs)   bands (ev):

   -20.5549 -20.1984 -19.2354 -18.5866 -17.3994 -15.4177 -14.1506 -12.8440
   -11.4547 -10.5657  -9.7303  -9.5271  -9.2348  -9.0006  -8.9517  -8.7213
    -8.3520  -8.1151  -7.9971  -6.8973  -6.4355  -5.4083

          k =-0.4984 0.0000 0.0000 (100544 PWs)   bands (ev):

   -20.4876 -20.2724 -19.2091 -18.6187 -17.3930 -15.4300 -14.1392 -12.8602
   -11.4187 -10.5686  -9.6669  -9.4522  -9.3222  -9.0614  -8.9491  -8.6936
    -8.2412  -8.1466  -8.1152  -6.8456  -6.4934  -5.4058

     highest occupied level (ev):    -3.1503

!    total energy              =    -118.59470911 Ry
     estimated scf accuracy    <          8.5E-10 Ry

     The total energy is the sum of the following terms:
     one-electron contribution =    -798.74234846 Ry
     hartree contribution      =     405.09907968 Ry
     xc contribution           =     -37.90290646 Ry
     ewald contribution        =     312.95146613 Ry

     convergence has been achieved in  13 iterations

     Forces acting on atoms (cartesian axes, Ry/au):

     atom    1 type  1   force =     0.00059899    0.00472309    0.00000000
     atom    2 type  1   force =    -0.00085792   -0.00329183    0.00000000
     atom    3 type  1   force =    -0.00059899    0.00472309    0.00000000
     atom    4 type  1   force =     0.00316345    0.00005554    0.00000000
     atom    5 type  1   force =    -0.00084350    0.00327572    0.00000000
     atom    6 type  1   force =     0.00085792   -0.00329183    0.00000000
     atom    7 type  1   force =    -0.00316345    0.00005554    0.00000000
     atom    8 type  1   force =     0.00063240   -0.00481634    0.00000000
     atom    9 type  1   force =     0.00084350    0.00327572    0.00000000
     atom   10 type  1   force =    -0.00063240   -0.00481634    0.00000000
     atom   11 type  2   force =     0.00033822   -0.00592724    0.00000000
     atom   12 type  2   force =    -0.00033822   -0.00592724    0.00000000
     atom   13 type  2   force =     0.00046230    0.00598106    0.00000000
     atom   14 type  2   force =    -0.00046230    0.00598106    0.00000000

     Total force =     0.017351     Total SCF correction =     0.000059


     Computing stress (Cartesian axis) and pressure

          total   stress  (Ry/bohr**3)                   (kbar)     P=        2.48
   0.00003587   0.00000000   0.00000000            5.28        0.00        0.00
   0.00000000   0.00001463   0.00000000            0.00        2.15        0.00
   0.00000000   0.00000000   0.00000009            0.00        0.00        0.01

     Energy error            =      1.2E-03
     Gradient error          =      6.0E-03
     Cell gradient error     =      3.6E-05


     number of scf cycles    =   3
     number of bfgs steps    =   2

     enthalpy old            =    -118.5934870082 Ry
     enthalpy new            =    -118.5947091057 Ry

     CASE: enthalpy_new < enthalpy_old

     new trust radius        =       0.0447536141 bohr
     new conv_thr            =       0.0000000006 Ry

     new unit-cell volume =   7034.71165 a.u.^3 (  1042.43672 Ang^3 )
     density =      0.19775 g/cm^3

CELL_PARAMETERS (alat=  8.05510878)
   1.005843156   0.000000000   0.000000000
   0.000000000   3.802589732   0.000000000
   0.000000000   0.000000000   3.519024858

ATOMIC_POSITIONS (crystal)
C             0.6594594245        0.3113706415        0.5000000000    1   1   0
C             0.8331213089        0.3856294743        0.5000000000    1   1   0
C             0.3405405755        0.3113706415        0.5000000000    1   1   0
C             0.6673898639        0.4619198224        0.5000000000    1   1   0
C             0.8331196445        0.5382001649        0.5000000000    1   1   0
C             0.1668786911        0.3856294743        0.5000000000    1   1   0
C             0.3326101361        0.4619198224        0.5000000000    1   1   0
C             0.6594535058        0.6124501689        0.5000000000    1   1   0
C             0.1668803555        0.5382001649        0.5000000000    1   1   0
C             0.3405464942        0.6124501689        0.5000000000    1   1   0
H             0.7814688117        0.2524513542        0.5000000000    1   1   0
H             0.2185311883        0.2524513542        0.5000000000    1   1   0
H             0.7815101171        0.6713477069        0.5000000000    1   1   0
H             0.2184898829        0.6713477069        0.5000000000    1   1   0



     Writing output data file ./5AGNR.save/
     NEW-OLD atomic charge density approx. for the potential

     negative rho (up, down):  4.989E-04 0.000E+00
     extrapolated charge   44.17792, renormalised to   44.00000

     total cpu time spent up to now is      421.2 secs

     Self-consistent Calculation

     iteration #  1     ecut=    90.00 Ry     beta= 0.30
     Davidson diagonalization with overlap
     ethr =  1.00E-06,  avg # of iterations =  6.8

     negative rho (up, down):  1.257E-03 0.000E+00

     total cpu time spent up to now is      435.2 secs

     total energy              =    -118.59032489 Ry
     estimated scf accuracy    <       0.00934707 Ry

     iteration #  2     ecut=    90.00 Ry     beta= 0.30
     Davidson diagonalization with overlap
     ethr =  2.12E-05,  avg # of iterations =  3.1

     negative rho (up, down):  1.151E-03 0.000E+00

     total cpu time spent up to now is      445.0 secs

     total energy              =    -118.59516554 Ry
     estimated scf accuracy    <       0.00025868 Ry

     iteration #  3     ecut=    90.00 Ry     beta= 0.30
     Davidson diagonalization with overlap
     ethr =  5.88E-07,  avg # of iterations =  4.1

     negative rho (up, down):  1.061E-03 0.000E+00

     total cpu time spent up to now is      454.4 secs

     total energy              =    -118.59534296 Ry
     estimated scf accuracy    <       0.00005521 Ry

     iteration #  4     ecut=    90.00 Ry     beta= 0.30
     Davidson diagonalization with overlap
     ethr =  1.25E-07,  avg # of iterations =  1.8

     negative rho (up, down):  7.497E-04 0.000E+00

     total cpu time spent up to now is      462.6 secs

     total energy              =    -118.59532904 Ry
     estimated scf accuracy    <       0.00004054 Ry

     iteration #  5     ecut=    90.00 Ry     beta= 0.30
     Davidson diagonalization with overlap
     ethr =  9.21E-08,  avg # of iterations =  2.1

     negative rho (up, down):  7.026E-04 0.000E+00

     total cpu time spent up to now is      470.5 secs

     total energy              =    -118.59533386 Ry
     estimated scf accuracy    <       0.00000211 Ry

     iteration #  6     ecut=    90.00 Ry     beta= 0.30
     Davidson diagonalization with overlap
     ethr =  4.80E-09,  avg # of iterations =  4.2

     negative rho (up, down):  5.882E-04 0.000E+00

     total cpu time spent up to now is      480.3 secs

     total energy              =    -118.59533384 Ry
     estimated scf accuracy    <       0.00000129 Ry

     iteration #  7     ecut=    90.00 Ry     beta= 0.30
     Davidson diagonalization with overlap
     ethr =  2.93E-09,  avg # of iterations =  2.0

     negative rho (up, down):  5.078E-04 0.000E+00

     total cpu time spent up to now is      490.8 secs

     total energy              =    -118.59533385 Ry
     estimated scf accuracy    <       0.00000046 Ry

     iteration #  8     ecut=    90.00 Ry     beta= 0.30
     Davidson diagonalization with overlap
     ethr =  1.04E-09,  avg # of iterations =  2.0

     negative rho (up, down):  4.970E-04 0.000E+00

     total cpu time spent up to now is      499.2 secs

     total energy              =    -118.59533384 Ry
     estimated scf accuracy    <       0.00000023 Ry

     iteration #  9     ecut=    90.00 Ry     beta= 0.30
     Davidson diagonalization with overlap
     ethr =  5.18E-10,  avg # of iterations =  1.2

     negative rho (up, down):  4.908E-04 0.000E+00

     total cpu time spent up to now is      507.9 secs

     total energy              =    -118.59533382 Ry
     estimated scf accuracy    <       0.00000011 Ry

     iteration # 10     ecut=    90.00 Ry     beta= 0.30
     Davidson diagonalization with overlap
     ethr =  2.43E-10,  avg # of iterations =  2.7

     negative rho (up, down):  4.874E-04 0.000E+00

     total cpu time spent up to now is      516.6 secs

     total energy              =    -118.59533382 Ry
     estimated scf accuracy    <       0.00000002 Ry

     iteration # 11     ecut=    90.00 Ry     beta= 0.30
     Davidson diagonalization with overlap
     ethr =  4.18E-11,  avg # of iterations =  3.8

     negative rho (up, down):  5.101E-04 0.000E+00

     total cpu time spent up to now is      524.5 secs

     total energy              =    -118.59533380 Ry
     estimated scf accuracy    <          7.6E-09 Ry

     iteration # 12     ecut=    90.00 Ry     beta= 0.30
     Davidson diagonalization with overlap
     ethr =  1.74E-11,  avg # of iterations =  4.2

     negative rho (up, down):  5.153E-04 0.000E+00

     total cpu time spent up to now is      533.8 secs

     total energy              =    -118.59533380 Ry
     estimated scf accuracy    <          3.4E-09 Ry

     iteration # 13     ecut=    90.00 Ry     beta= 0.30
     Davidson diagonalization with overlap
     ethr =  7.83E-12,  avg # of iterations =  1.0

     negative rho (up, down):  5.215E-04 0.000E+00

     total cpu time spent up to now is      540.2 secs

     total energy              =    -118.59533380 Ry
     estimated scf accuracy    <          3.5E-09 Ry

     iteration # 14     ecut=    90.00 Ry     beta= 0.30
     Davidson diagonalization with overlap
     ethr =  7.83E-12,  avg # of iterations =  2.2

     negative rho (up, down):  5.214E-04 0.000E+00

     total cpu time spent up to now is      548.6 secs

     total energy              =    -118.59533380 Ry
     estimated scf accuracy    <          6.7E-10 Ry

     iteration # 15     ecut=    90.00 Ry     beta= 0.30
     Davidson diagonalization with overlap
     ethr =  1.52E-12,  avg # of iterations =  3.1

     negative rho (up, down):  5.229E-04 0.000E+00

     total cpu time spent up to now is      554.0 secs

     End of self-consistent calculation

          k = 0.0000 0.0000 0.0000 (100445 PWs)   bands (ev):

   -21.7753 -20.3030 -18.0657 -16.6518 -15.8804 -15.6428 -15.2817 -13.0965
   -12.9570 -12.1589 -10.9671 -10.5619 -10.0638  -9.8479  -8.7487  -8.2301
    -8.0284  -6.7940  -6.3271  -5.7612  -4.5843  -3.1427

          k = 0.0249 0.0000 0.0000 (100451 PWs)   bands (ev):

   -21.7717 -20.2996 -18.0636 -16.7120 -15.9127 -15.5777 -15.2628 -13.1278
   -12.9368 -12.1374 -10.9520 -10.5884 -10.0486  -9.8436  -8.7393  -8.2261
    -8.0413  -6.7975  -6.3355  -5.7595  -4.6116  -3.2184

          k = 0.0497 0.0000 0.0000 (100405 PWs)   bands (ev):

   -21.7609 -20.2893 -18.0577 -16.8601 -15.9992 -15.4146 -15.2158 -13.2130
   -12.8773 -12.0812 -10.9074 -10.6596 -10.0101  -9.8307  -8.7123  -8.2142
    -8.0795  -6.8083  -6.3607  -5.7544  -4.6899  -3.3757

          k = 0.0746 0.0000 0.0000 (100415 PWs)   bands (ev):

   -21.7428 -20.2722 -18.0487 -17.0487 -16.1212 -15.2005 -15.1560 -13.3345
   -12.7820 -12.0059 -10.8350 -10.7607  -9.9600  -9.8091  -8.6709  -8.1943
    -8.1408  -6.8286  -6.4020  -5.7461  -4.8112  -3.5577

          k = 0.0994 0.0000 0.0000 (100401 PWs)   bands (ev):

   -21.7176 -20.2483 -18.0384 -17.2510 -16.2653 -15.0924 -14.9610 -13.4775
   -12.6556 -11.9236 -10.8808 -10.7377  -9.9051  -9.7789  -8.6197  -8.2223
    -8.1665  -6.8606  -6.4586  -5.7351  -4.9649  -3.7486

          k = 0.1243 0.0000 0.0000 (100453 PWs)   bands (ev):

   -21.6851 -20.2176 -18.0317 -17.4509 -16.4233 -15.0285 -14.7081 -13.6319
   -12.5039 -11.8398 -11.0126 -10.6199  -9.8477  -9.7401  -8.5637  -8.3209
    -8.1308  -6.9070  -6.5294  -5.7224  -5.1409  -3.9436

          k = 0.1491 0.0000 0.0000 (100437 PWs)   bands (ev):

   -21.6454 -20.1801 -18.0428 -17.6292 -16.5901 -14.9647 -14.4496 -13.7897
   -12.3329 -11.7559 -11.1507 -10.4865  -9.7880  -9.6927  -8.5079  -8.4332
    -8.0873  -6.9701  -6.6131  -5.7113  -5.3287  -4.1403

          k = 0.1740 0.0000 0.0000 (100468 PWs)   bands (ev):

   -21.5986 -20.1360 -18.1081 -17.7470 -16.7621 -14.9007 -14.2039 -13.9316
   -12.1501 -11.6713 -11.2890 -10.3427  -9.7254  -9.6368  -8.5561  -8.4567
    -8.0360  -7.0514  -6.7081  -5.7174  -5.5072  -4.3375

          k = 0.1988 0.0000 0.0000 (100478 PWs)   bands (ev):

   -21.5446 -20.0853 -18.2491 -17.7815 -16.9369 -14.8356 -14.1658 -13.8627
   -11.9696 -11.5847 -11.4150 -10.1934  -9.6594  -9.5724  -8.6870  -8.4141
    -7.9769  -7.1521  -6.8129  -5.8165  -5.5965  -4.5342

          k = 0.2237 0.0000 0.0000 (100498 PWs)   bands (ev):

   -21.4835 -20.0281 -18.4293 -17.7687 -17.1123 -14.7689 -14.3090 -13.6089
   -11.8422 -11.4944 -11.4790 -10.0428  -9.5893  -9.4996  -8.8228  -8.3833
    -7.9103  -7.2724  -6.9260  -6.0064  -5.5963  -4.7297

          k = 0.2485 0.0000 0.0000 (100466 PWs)   bands (ev):

   -21.4153 -19.9646 -18.6206 -17.7366 -17.2869 -14.7002 -14.4624 -13.3414
   -11.8679 -11.3990 -11.3823  -9.8955  -9.5149  -9.4183  -8.9607  -8.3671
    -7.8361  -7.4119  -7.0458  -6.2149  -5.5768  -4.9232

          k = 0.2734 0.0000 0.0000 (100484 PWs)   bands (ev):

   -21.3401 -19.8948 -18.8130 -17.6953 -17.4594 -14.6295 -14.6126 -13.0742
   -11.9825 -11.2975 -11.1901  -9.7565  -9.4358  -9.3286  -9.0964  -8.3676
    -7.7545  -7.5696  -7.1708  -6.4265  -5.5526  -5.1142

          k = 0.2983 0.0000 0.0000 (100486 PWs)   bands (ev):

   -21.2579 -19.8192 -19.0029 -17.6490 -17.6287 -14.7562 -14.5569 -12.8113
   -12.1156 -11.1889 -10.9732  -9.6356  -9.3522  -9.2307  -9.2207  -8.3863
    -7.7441  -7.6657  -7.2994  -6.6371  -5.5268  -5.3020

          k = 0.3231 0.0000 0.0000 (100454 PWs)   bands (ev):

   -21.1688 -19.7381 -19.1885 -17.7937 -17.6002 -14.8911 -14.4831 -12.5562
   -12.2502 -11.0731 -10.7494  -9.5648  -9.3013  -9.2642  -9.1246  -8.4242
    -7.9333  -7.5699  -7.4303  -6.8449  -5.5011  -5.4860

          k = 0.3480 0.0000 0.0000 (100468 PWs)   bands (ev):

   -21.0729 -19.6521 -19.3689 -17.9533 -17.5510 -15.0153 -14.4091 -12.3804
   -12.3126 -10.9508 -10.5247  -9.6005  -9.2802  -9.1723  -9.0104  -8.4816
    -8.1349  -7.5618  -7.4675  -7.0487  -5.6656  -5.4766

          k = 0.3728 0.0000 0.0000 (100538 PWs)   bands (ev):

   -20.9703 -19.5620 -19.5434 -18.1062 -17.5034 -15.1266 -14.3366 -12.5022
   -12.0847 -10.8255 -10.3027  -9.6897  -9.2061  -9.0773  -8.8883  -8.5581
    -8.3456  -7.6922  -7.3588  -7.2476  -5.8400  -5.4540

          k = 0.3977 0.0000 0.0000 (100482 PWs)   bands (ev):

   -20.8615 -19.7114 -19.4696 -18.2505 -17.4596 -15.2227 -14.2680 -12.6123
   -11.8776 -10.7060 -10.0865  -9.7700  -9.1325  -8.9810  -8.7584  -8.6527
    -8.5608  -7.8190  -7.4409  -7.2447  -6.0082  -5.4343

          k = 0.4225 0.0000 0.0000 (100540 PWs)   bands (ev):

   -20.7471 -19.8721 -19.3779 -18.3827 -17.4219 -15.3013 -14.2067 -12.7063
   -11.6975 -10.6097  -9.8799  -9.8089  -9.0777  -8.8875  -8.7713  -8.7621
    -8.6210  -7.9386  -7.6279  -7.1268  -6.1684  -5.4181

          k = 0.4474 0.0000 0.0000 (100530 PWs)   bands (ev):

   -20.6289 -20.0234 -19.2930 -18.4967 -17.3927 -15.3597 -14.1573 -12.7795
   -11.5530 -10.5567  -9.7812  -9.6885  -9.0860  -8.9297  -8.8910  -8.7930
    -8.4768  -8.0444  -7.8077  -7.0091  -6.3164  -5.4061

          k = 0.4722 0.0000 0.0000 (100570 PWs)   bands (ev):

   -20.5141 -20.1580 -19.2276 -18.5796 -17.3741 -15.3958 -14.1248 -12.8264
   -11.4563 -10.5444  -9.6919  -9.5278  -9.2265  -9.0078  -8.9521  -8.7273
    -8.3286  -8.1235  -7.9774  -6.9039  -6.4398  -5.3987

          k =-0.4971 0.0000 0.0000 (100544 PWs)   bands (ev):

   -20.4476 -20.2312 -19.2016 -18.6115 -17.3677 -15.4080 -14.1134 -12.8426
   -11.4216 -10.5455  -9.6220  -9.4517  -9.3218  -9.0696  -8.9485  -8.7003
    -8.2181  -8.1544  -8.0951  -6.8532  -6.4966  -5.3962

     highest occupied level (ev):    -3.1427

!    total energy              =    -118.59533380 Ry
     estimated scf accuracy    <          2.5E-10 Ry

     The total energy is the sum of the following terms:
     one-electron contribution =    -795.52886165 Ry
     hartree contribution      =     403.47240240 Ry
     xc contribution           =     -37.84347043 Ry
     ewald contribution        =     311.30459588 Ry

     convergence has been achieved in  15 iterations

     Forces acting on atoms (cartesian axes, Ry/au):

     atom    1 type  1   force =     0.00049879   -0.00172555    0.00000000
     atom    2 type  1   force =     0.00234891    0.00368688    0.00000000
     atom    3 type  1   force =    -0.00049879   -0.00172555    0.00000000
     atom    4 type  1   force =    -0.00416703   -0.00003714    0.00000000
     atom    5 type  1   force =     0.00236776   -0.00380654    0.00000000
     atom    6 type  1   force =    -0.00234891    0.00368688    0.00000000
     atom    7 type  1   force =     0.00416703   -0.00003714    0.00000000
     atom    8 type  1   force =     0.00052385    0.00183667    0.00000000
     atom    9 type  1   force =    -0.00236776   -0.00380654    0.00000000
     atom   10 type  1   force =    -0.00052385    0.00183667    0.00000000
     atom   11 type  2   force =    -0.00338098    0.00143393    0.00000000
     atom   12 type  2   force =     0.00338098    0.00143393    0.00000000
     atom   13 type  2   force =    -0.00332613   -0.00138825    0.00000000
     atom   14 type  2   force =     0.00332613   -0.00138825    0.00000000

     Total force =     0.013411     Total SCF correction =     0.000034


     Computing stress (Cartesian axis) and pressure

          total   stress  (Ry/bohr**3)                   (kbar)     P=        0.62
   0.00001698   0.00000000   0.00000000            2.50        0.00        0.00
   0.00000000  -0.00000434   0.00000000            0.00       -0.64        0.00
   0.00000000   0.00000000   0.00000006            0.00        0.00        0.01

     Energy error            =      6.2E-04
     Gradient error          =      4.2E-03
     Cell gradient error     =      1.7E-05


     number of scf cycles    =   4
     number of bfgs steps    =   3

     enthalpy old            =    -118.5947091057 Ry
     enthalpy new            =    -118.5953337998 Ry

     CASE: enthalpy_new < enthalpy_old

     new trust radius        =       0.0203268503 bohr
     new conv_thr            =       0.0000000004 Ry

     new unit-cell volume =   7045.58191 a.u.^3 (  1044.04752 Ang^3 )
     density =      0.19744 g/cm^3

CELL_PARAMETERS (alat=  8.05510878)
   1.007061997   0.000000000   0.000000000
   0.000000000   3.803844792   0.000000000
   0.000000000   0.000000000   3.519035458

ATOMIC_POSITIONS (crystal)
C             0.6592888532        0.3113027114        0.5000000000    1   1   0
C             0.8333448602        0.3856643712        0.5000000000    1   1   0
C             0.3407111468        0.3113027114        0.5000000000    1   1   0
C             0.6669615191        0.4619198624        0.5000000000    1   1   0
C             0.8333456899        0.5381623471        0.5000000000    1   1   0
C             0.1666551398        0.3856643712        0.5000000000    1   1   0
C             0.3330384809        0.4619198624        0.5000000000    1   1   0
C             0.6592850848        0.6125209122        0.5000000000    1   1   0
C             0.1666543101        0.5381623471        0.5000000000    1   1   0
C             0.3407149152        0.6125209122        0.5000000000    1   1   0
H             0.7810252326        0.2523844170        0.5000000000    1   1   0
H             0.2189747674        0.2523844170        0.5000000000    1   1   0
H             0.7810819379        0.6714147116        0.5000000000    1   1   0
H             0.2189180621        0.6714147116        0.5000000000    1   1   0



     Writing output data file ./5AGNR.save/
     NEW-OLD atomic charge density approx. for the potential

     negative rho (up, down):  4.779E-04 0.000E+00
     extrapolated charge   44.06729, renormalised to   44.00000

     total cpu time spent up to now is      558.7 secs

     Self-consistent Calculation

     iteration #  1     ecut=    90.00 Ry     beta= 0.30
     Davidson diagonalization with overlap
     ethr =  1.00E-06,  avg # of iterations =  5.1

     negative rho (up, down):  7.208E-04 0.000E+00

     total cpu time spent up to now is      570.5 secs

     total energy              =    -118.59485079 Ry
     estimated scf accuracy    <       0.00115525 Ry

     iteration #  2     ecut=    90.00 Ry     beta= 0.30
     Davidson diagonalization with overlap
     ethr =  2.63E-06,  avg # of iterations =  3.1

     negative rho (up, down):  6.824E-04 0.000E+00

     total cpu time spent up to now is      580.4 secs

     total energy              =    -118.59547429 Ry
     estimated scf accuracy    <       0.00004949 Ry

     iteration #  3     ecut=    90.00 Ry     beta= 0.30
     Davidson diagonalization with overlap
     ethr =  1.12E-07,  avg # of iterations =  4.0

     negative rho (up, down):  6.460E-04 0.000E+00

     total cpu time spent up to now is      589.8 secs

     total energy              =    -118.59549286 Ry
     estimated scf accuracy    <       0.00001719 Ry

     iteration #  4     ecut=    90.00 Ry     beta= 0.30
     Davidson diagonalization with overlap
     ethr =  3.91E-08,  avg # of iterations =  1.0

     negative rho (up, down):  5.284E-04 0.000E+00

     total cpu time spent up to now is      597.3 secs

     total energy              =    -118.59548798 Ry
     estimated scf accuracy    <       0.00001118 Ry

     iteration #  5     ecut=    90.00 Ry     beta= 0.30
     Davidson diagonalization with overlap
     ethr =  2.54E-08,  avg # of iterations =  2.4

     negative rho (up, down):  5.185E-04 0.000E+00

     total cpu time spent up to now is      605.3 secs

     total energy              =    -118.59548979 Ry
     estimated scf accuracy    <       0.00000042 Ry

     iteration #  6     ecut=    90.00 Ry     beta= 0.30
     Davidson diagonalization with overlap
     ethr =  9.43E-10,  avg # of iterations =  4.5

     negative rho (up, down):  5.049E-04 0.000E+00

     total cpu time spent up to now is      616.7 secs

     total energy              =    -118.59548981 Ry
     estimated scf accuracy    <       0.00000031 Ry

     iteration #  7     ecut=    90.00 Ry     beta= 0.30
     Davidson diagonalization with overlap
     ethr =  7.12E-10,  avg # of iterations =  2.0

     negative rho (up, down):  4.809E-04 0.000E+00

     total cpu time spent up to now is      624.8 secs

     total energy              =    -118.59548977 Ry
     estimated scf accuracy    <       0.00000016 Ry

     iteration #  8     ecut=    90.00 Ry     beta= 0.30
     Davidson diagonalization with overlap
     ethr =  3.68E-10,  avg # of iterations =  2.0

     negative rho (up, down):  4.823E-04 0.000E+00

     total cpu time spent up to now is      633.8 secs

     total energy              =    -118.59548978 Ry
     estimated scf accuracy    <       0.00000005 Ry

     iteration #  9     ecut=    90.00 Ry     beta= 0.30
     Davidson diagonalization with overlap
     ethr =  1.16E-10,  avg # of iterations =  1.1

     negative rho (up, down):  4.948E-04 0.000E+00

     total cpu time spent up to now is      641.0 secs

     total energy              =    -118.59548975 Ry
     estimated scf accuracy    <       0.00000004 Ry

     iteration # 10     ecut=    90.00 Ry     beta= 0.30
     Davidson diagonalization with overlap
     ethr =  9.36E-11,  avg # of iterations =  3.5

     negative rho (up, down):  4.952E-04 0.000E+00

     total cpu time spent up to now is      650.5 secs

     total energy              =    -118.59548975 Ry
     estimated scf accuracy    <       0.00000001 Ry

     iteration # 11     ecut=    90.00 Ry     beta= 0.30
     Davidson diagonalization with overlap
     ethr =  3.33E-11,  avg # of iterations =  2.0

     negative rho (up, down):  5.139E-04 0.000E+00

     total cpu time spent up to now is      657.7 secs

     total energy              =    -118.59548974 Ry
     estimated scf accuracy    <       0.00000001 Ry

     iteration # 12     ecut=    90.00 Ry     beta= 0.30
     Davidson diagonalization with overlap
     ethr =  2.41E-11,  avg # of iterations =  3.3

     negative rho (up, down):  5.200E-04 0.000E+00

     total cpu time spent up to now is      666.9 secs

     total energy              =    -118.59548974 Ry
     estimated scf accuracy    <          2.3E-09 Ry

     iteration # 13     ecut=    90.00 Ry     beta= 0.30
     Davidson diagonalization with overlap
     ethr =  5.28E-12,  avg # of iterations =  1.5

     negative rho (up, down):  5.219E-04 0.000E+00

     total cpu time spent up to now is      674.0 secs

     total energy              =    -118.59548974 Ry
     estimated scf accuracy    <          1.9E-09 Ry

     iteration # 14     ecut=    90.00 Ry     beta= 0.30
     Davidson diagonalization with overlap
     ethr =  4.41E-12,  avg # of iterations =  2.8

     negative rho (up, down):  5.241E-04 0.000E+00

     total cpu time spent up to now is      679.5 secs

     End of self-consistent calculation

          k = 0.0000 0.0000 0.0000 (100445 PWs)   bands (ev):

   -21.7634 -20.2858 -18.0610 -16.6489 -15.8860 -15.6564 -15.2694 -13.0918
   -12.9464 -12.1506 -10.9681 -10.5628 -10.0477  -9.8401  -8.7617  -8.2197
    -8.0300  -6.8283  -6.3138  -5.7658  -4.5780  -3.1608

          k = 0.0248 0.0000 0.0000 (100451 PWs)   bands (ev):

   -21.7598 -20.2824 -18.0590 -16.7097 -15.9175 -15.5908 -15.2514 -13.1230
   -12.9264 -12.1291 -10.9533 -10.5889 -10.0328  -9.8357  -8.7524  -8.2158
    -8.0430  -6.8316  -6.3222  -5.7640  -4.6055  -3.2330

          k = 0.0496 0.0000 0.0000 (100405 PWs)   bands (ev):

   -21.7490 -20.2722 -18.0531 -16.8587 -16.0020 -15.4269 -15.2059 -13.2078
   -12.8674 -12.0726 -10.9092 -10.6593  -9.9949  -9.8228  -8.7254  -8.2039
    -8.0814  -6.8421  -6.3473  -5.7589  -4.6845  -3.3866

          k = 0.0745 0.0000 0.0000 (100415 PWs)   bands (ev):

   -21.7310 -20.2551 -18.0440 -17.0479 -16.1221 -15.2125 -15.1475 -13.3289
   -12.7728 -11.9971 -10.8375 -10.7597  -9.9453  -9.8013  -8.6841  -8.1840
    -8.1430  -6.8617  -6.3887  -5.7506  -4.8066  -3.5663

          k = 0.0993 0.0000 0.0000 (100401 PWs)   bands (ev):

   -21.7058 -20.2313 -18.0337 -17.2505 -16.2645 -15.0850 -14.9729 -13.4714
   -12.6475 -11.9145 -10.8792 -10.7412  -9.8906  -9.7712  -8.6329  -8.2248
    -8.1563  -6.8930  -6.4453  -5.7396  -4.9612  -3.7556

          k = 0.1241 0.0000 0.0000 (100453 PWs)   bands (ev):

   -21.6734 -20.2006 -18.0269 -17.4507 -16.4210 -15.0219 -14.7203 -13.6253
   -12.4971 -11.8303 -11.0104 -10.6245  -9.8333  -9.7325  -8.5770  -8.3236
    -8.1208  -6.9385  -6.5160  -5.7269  -5.1382  -3.9493

          k = 0.1489 0.0000 0.0000 (100437 PWs)   bands (ev):

   -21.6339 -20.1633 -18.0377 -17.6292 -16.5865 -14.9587 -14.4620 -13.7827
   -12.3276 -11.7463 -11.1476 -10.4922  -9.7736  -9.6852  -8.5211  -8.4361
    -8.0774  -7.0006  -6.5996  -5.7154  -5.3271  -4.1449

          k = 0.1738 0.0000 0.0000 (100468 PWs)   bands (ev):

   -21.5872 -20.1193 -18.1028 -17.7472 -16.7574 -14.8951 -14.2146 -13.9262
   -12.1468 -11.6616 -11.2847 -10.3495  -9.7111  -9.6294  -8.5591  -8.4699
    -8.0262  -7.0809  -6.6946  -5.7194  -5.5082  -4.3412

          k = 0.1986 0.0000 0.0000 (100478 PWs)   bands (ev):

   -21.5333 -20.0688 -18.2442 -17.7812 -16.9311 -14.8304 -14.1596 -13.8741
   -11.9694 -11.5750 -11.4082 -10.2012  -9.6451  -9.5651  -8.6899  -8.4272
    -7.9674  -7.1804  -6.7994  -5.8141  -5.6024  -4.5370

          k = 0.2234 0.0000 0.0000 (100498 PWs)   bands (ev):

   -21.4724 -20.0118 -18.4246 -17.7683 -17.1056 -14.7641 -14.2998 -13.6231
   -11.8463 -11.4849 -11.4686 -10.0518  -9.5751  -9.4924  -8.8255  -8.3963
    -7.9010  -7.2994  -6.9124  -6.0036  -5.6029  -4.7317

          k = 0.2482 0.0000 0.0000 (100466 PWs)   bands (ev):

   -21.4044 -19.9484 -18.6157 -17.7363 -17.2793 -14.6957 -14.4521 -13.3564
   -11.8713 -11.3900 -11.3733  -9.9059  -9.5008  -9.4113  -8.9629  -8.3798
    -7.8270  -7.4375  -7.0321  -6.2122  -5.5837  -4.9244

          k = 0.2731 0.0000 0.0000 (100484 PWs)   bands (ev):

   -21.3294 -19.8789 -18.8078 -17.6954 -17.4510 -14.6254 -14.6014 -13.0896
   -11.9835 -11.2891 -11.1840  -9.7688  -9.4218  -9.3219  -9.0976  -8.3800
    -7.7457  -7.5938  -7.1570  -6.4238  -5.5597  -5.1146

          k = 0.2979 0.0000 0.0000 (100486 PWs)   bands (ev):

   -21.2474 -19.8036 -18.9973 -17.6497 -17.6195 -14.7440 -14.5532 -12.8270
   -12.1152 -11.1816 -10.9692  -9.6508  -9.3383  -9.2242  -9.2199  -8.3983
    -7.7666  -7.6572  -7.2856  -6.6344  -5.5342  -5.3017

          k = 0.3227 0.0000 0.0000 (100454 PWs)   bands (ev):

   -21.1585 -19.7227 -19.1826 -17.7839 -17.6015 -14.8780 -14.4798 -12.5719
   -12.2487 -11.0672 -10.7469  -9.5832  -9.2980  -9.2504  -9.1183  -8.4357
    -7.9540  -7.5617  -7.4164  -6.8420  -5.5087  -5.4850

          k = 0.3475 0.0000 0.0000 (100468 PWs)   bands (ev):

   -21.0628 -19.6370 -19.3626 -17.9428 -17.5530 -15.0011 -14.4062 -12.3780
   -12.3278 -10.9471 -10.5235  -9.6161  -9.2804  -9.1585  -9.0044  -8.4925
    -8.1535  -7.5478  -7.4596  -7.0456  -5.6640  -5.4844

          k = 0.3724 0.0000 0.0000 (100538 PWs)   bands (ev):

   -20.9606 -19.5473 -19.5366 -18.0951 -17.5062 -15.1114 -14.3342 -12.4991
   -12.0988 -10.8249 -10.3028  -9.7021  -9.2102  -9.0636  -8.8825  -8.5685
    -8.3617  -7.6781  -7.3512  -7.2443  -5.8378  -5.4621

          k = 0.3972 0.0000 0.0000 (100482 PWs)   bands (ev):

   -20.8521 -19.7042 -19.4552 -18.2387 -17.4631 -15.2067 -14.2661 -12.6084
   -11.8900 -10.7097 -10.0879  -9.7807  -9.1387  -8.9673  -8.7528  -8.6625
[...]

     Dense  grid:   529227 G-vectors     FFT dimensions: (  45, 162, 150)

     Estimated max dynamical RAM per process >      61.03 MB

     Estimated total dynamical RAM >       1.79 GB

     Initial potential from superposition of free atoms

     starting charge   43.61466, renormalised to   44.00000

     negative rho (up, down):  6.481E-04 0.000E+00
     Starting wfcs are   44 randomized atomic wfcs

     total cpu time spent up to now is     1168.9 secs

     Self-consistent Calculation

     iteration #  1     ecut=    90.00 Ry     beta= 0.30
     Davidson diagonalization with overlap
     ethr =  1.00E-06,  avg # of iterations =  8.9

     total cpu time spent up to now is     1186.0 secs

     total energy              =    -119.44330575 Ry
     estimated scf accuracy    <       3.60787746 Ry

     iteration #  2     ecut=    90.00 Ry     beta= 0.30
     Davidson diagonalization with overlap
     ethr =  8.20E-03,  avg # of iterations =  1.0

     negative rho (up, down):  1.312E-04 0.000E+00

     total cpu time spent up to now is     1190.6 secs

     total energy              =    -118.24926113 Ry
     estimated scf accuracy    <       2.38360382 Ry

     iteration #  3     ecut=    90.00 Ry     beta= 0.30
     Davidson diagonalization with overlap
     ethr =  5.42E-03,  avg # of iterations =  2.6

     total cpu time spent up to now is     1196.6 secs

     total energy              =    -118.68643175 Ry
     estimated scf accuracy    <       0.28712715 Ry

     iteration #  4     ecut=    90.00 Ry     beta= 0.30
     Davidson diagonalization with overlap
     ethr =  6.53E-04,  avg # of iterations =  2.8

     total cpu time spent up to now is     1201.9 secs

     total energy              =    -118.65073624 Ry
     estimated scf accuracy    <       0.23875579 Ry

     iteration #  5     ecut=    90.00 Ry     beta= 0.30
     Davidson diagonalization with overlap
     ethr =  5.43E-04,  avg # of iterations =  2.0

     negative rho (up, down):  1.907E-03 0.000E+00

     total cpu time spent up to now is     1207.3 secs

     total energy              =    -118.62678556 Ry
     estimated scf accuracy    <       0.12873129 Ry

     iteration #  6     ecut=    90.00 Ry     beta= 0.30
     Davidson diagonalization with overlap
     ethr =  2.93E-04,  avg # of iterations =  1.0

     negative rho (up, down):  1.181E-03 0.000E+00

     total cpu time spent up to now is     1212.3 secs

     total energy              =    -118.61535139 Ry
     estimated scf accuracy    <       0.07662824 Ry

     iteration #  7     ecut=    90.00 Ry     beta= 0.30
     Davidson diagonalization with overlap
     ethr =  1.74E-04,  avg # of iterations =  1.1

     negative rho (up, down):  7.002E-02 0.000E+00

     total cpu time spent up to now is     1217.7 secs

     total energy              =    -118.60381597 Ry
     estimated scf accuracy    <       0.04587226 Ry

     iteration #  8     ecut=    90.00 Ry     beta= 0.30
     Davidson diagonalization with overlap
     ethr =  1.04E-04,  avg # of iterations =  2.4

     negative rho (up, down):  5.508E-02 0.000E+00

     total cpu time spent up to now is     1224.6 secs

     total energy              =    -118.59820914 Ry
     estimated scf accuracy    <       0.03551579 Ry

     iteration #  9     ecut=    90.00 Ry     beta= 0.30
     Davidson diagonalization with overlap
     ethr =  8.07E-05,  avg # of iterations =  2.1

     negative rho (up, down):  1.426E-01 0.000E+00

     total cpu time spent up to now is     1231.7 secs

     total energy              =    -118.59736790 Ry
     estimated scf accuracy    <       0.01739108 Ry

     iteration # 10     ecut=    90.00 Ry     beta= 0.30
     Davidson diagonalization with overlap
     ethr =  3.95E-05,  avg # of iterations =  3.4

     negative rho (up, down):  8.623E-02 0.000E+00

     total cpu time spent up to now is     1238.4 secs

     total energy              =    -118.59596126 Ry
     estimated scf accuracy    <       0.00919643 Ry

     iteration # 11     ecut=    90.00 Ry     beta= 0.30
     Davidson diagonalization with overlap
     ethr =  2.09E-05,  avg # of iterations =  2.0

     negative rho (up, down):  2.159E-02 0.000E+00

     total cpu time spent up to now is     1245.2 secs

     total energy              =    -118.59514172 Ry
     estimated scf accuracy    <       0.00240518 Ry

     iteration # 12     ecut=    90.00 Ry     beta= 0.30
     Davidson diagonalization with overlap
     ethr =  5.47E-06,  avg # of iterations =  4.2

     negative rho (up, down):  2.827E-02 0.000E+00

     total cpu time spent up to now is     1253.5 secs

     total energy              =    -118.59583300 Ry
     estimated scf accuracy    <       0.00096145 Ry

     iteration # 13     ecut=    90.00 Ry     beta= 0.30
     Davidson diagonalization with overlap
     ethr =  2.19E-06,  avg # of iterations =  2.1

     negative rho (up, down):  1.035E-02 0.000E+00

     total cpu time spent up to now is     1260.6 secs

     total energy              =    -118.59562678 Ry
     estimated scf accuracy    <       0.00050313 Ry

     iteration # 14     ecut=    90.00 Ry     beta= 0.30
     Davidson diagonalization with overlap
     ethr =  1.14E-06,  avg # of iterations =  4.4

     negative rho (up, down):  9.781E-03 0.000E+00

     total cpu time spent up to now is     1270.1 secs

     total energy              =    -118.59576331 Ry
     estimated scf accuracy    <       0.00045113 Ry

     iteration # 15     ecut=    90.00 Ry     beta= 0.30
     Davidson diagonalization with overlap
     ethr =  1.03E-06,  avg # of iterations =  2.0

     negative rho (up, down):  4.478E-03 0.000E+00

     total cpu time spent up to now is     1277.2 secs

     total energy              =    -118.59571818 Ry
     estimated scf accuracy    <       0.00014393 Ry

     iteration # 16     ecut=    90.00 Ry     beta= 0.30
     Davidson diagonalization with overlap
     ethr =  3.27E-07,  avg # of iterations =  4.2

     negative rho (up, down):  2.852E-03 0.000E+00

     total cpu time spent up to now is     1285.8 secs

     total energy              =    -118.59572381 Ry
     estimated scf accuracy    <       0.00003673 Ry

     iteration # 17     ecut=    90.00 Ry     beta= 0.30
     Davidson diagonalization with overlap
     ethr =  8.35E-08,  avg # of iterations =  4.5

     negative rho (up, down):  2.622E-03 0.000E+00

     total cpu time spent up to now is     1296.0 secs

     total energy              =    -118.59574255 Ry
     estimated scf accuracy    <       0.00002078 Ry

     iteration # 18     ecut=    90.00 Ry     beta= 0.30
     Davidson diagonalization with overlap
     ethr =  4.72E-08,  avg # of iterations =  2.0

     negative rho (up, down):  1.005E-03 0.000E+00

     total cpu time spent up to now is     1303.6 secs

     total energy              =    -118.59574225 Ry
     estimated scf accuracy    <       0.00000712 Ry

     iteration # 19     ecut=    90.00 Ry     beta= 0.30
     Davidson diagonalization with overlap
     ethr =  1.62E-08,  avg # of iterations =  4.0

     negative rho (up, down):  7.728E-04 0.000E+00

     total cpu time spent up to now is     1314.5 secs

     total energy              =    -118.59574098 Ry
     estimated scf accuracy    <       0.00000062 Ry

     iteration # 20     ecut=    90.00 Ry     beta= 0.30
     Davidson diagonalization with overlap
     ethr =  1.42E-09,  avg # of iterations =  3.7

     negative rho (up, down):  6.483E-04 0.000E+00

     total cpu time spent up to now is     1323.7 secs

     total energy              =    -118.59574049 Ry
     estimated scf accuracy    <       0.00000018 Ry

     iteration # 21     ecut=    90.00 Ry     beta= 0.30
     Davidson diagonalization with overlap
     ethr =  4.07E-10,  avg # of iterations =  4.9

     negative rho (up, down):  5.691E-04 0.000E+00

     total cpu time spent up to now is     1332.9 secs

     total energy              =    -118.59574039 Ry
     estimated scf accuracy    <       0.00000028 Ry

     iteration # 22     ecut=    90.00 Ry     beta= 0.30
     Davidson diagonalization with overlap
     ethr =  4.07E-10,  avg # of iterations =  3.5

     negative rho (up, down):  5.140E-04 0.000E+00

     total cpu time spent up to now is     1340.7 secs

     total energy              =    -118.59574040 Ry
     estimated scf accuracy    <       0.00000003 Ry

     iteration # 23     ecut=    90.00 Ry     beta= 0.30
     Davidson diagonalization with overlap
     ethr =  6.35E-11,  avg # of iterations =  5.0

     negative rho (up, down):  5.119E-04 0.000E+00

     total cpu time spent up to now is     1351.1 secs

     total energy              =    -118.59574042 Ry
     estimated scf accuracy    <       0.00000002 Ry

     iteration # 24     ecut=    90.00 Ry     beta= 0.30
     Davidson diagonalization with overlap
     ethr =  3.53E-11,  avg # of iterations =  2.8

     negative rho (up, down):  5.126E-04 0.000E+00

     total cpu time spent up to now is     1358.9 secs

     total energy              =    -118.59574044 Ry
     estimated scf accuracy    <          3.8E-09 Ry

     iteration # 25     ecut=    90.00 Ry     beta= 0.30
     Davidson diagonalization with overlap
     ethr =  8.72E-12,  avg # of iterations =  4.7

     negative rho (up, down):  5.074E-04 0.000E+00

     total cpu time spent up to now is     1367.9 secs

     total energy              =    -118.59574044 Ry
     estimated scf accuracy    <          3.9E-09 Ry

     iteration # 26     ecut=    90.00 Ry     beta= 0.30
     Davidson diagonalization with overlap
     ethr =  8.72E-12,  avg # of iterations =  3.5

     negative rho (up, down):  5.115E-04 0.000E+00

     total cpu time spent up to now is     1374.1 secs

     End of self-consistent calculation

          k = 0.0000 0.0000 0.0000 (101825 PWs)   bands (ev):

   -21.7662 -20.2766 -18.0432 -16.7150 -15.8737 -15.6489 -15.3180 -13.1208
   -12.9345 -12.1620 -10.9231 -10.5892 -10.0234  -9.8427  -8.7228  -8.2123
    -8.0617  -6.8366  -6.3238  -5.7469  -4.6311  -3.1427

          k = 0.0247 0.0000 0.0000 (101845 PWs)   bands (ev):

   -21.7626 -20.2733 -18.0413 -16.7711 -15.9084 -15.5877 -15.2960 -13.1509
   -12.9152 -12.1408 -10.9092 -10.6137 -10.0090  -9.8384  -8.7145  -8.2083
    -8.0740  -6.8407  -6.3320  -5.7453  -4.6579  -3.2227

          k = 0.0495 0.0000 0.0000 (101877 PWs)   bands (ev):

   -21.7519 -20.2631 -18.0359 -16.9114 -15.9992 -15.4321 -15.2423 -13.2329
   -12.8586 -12.0848 -10.8679 -10.6806  -9.9717  -9.8256  -8.6907  -8.1965
    -8.1102  -6.8532  -6.3565  -5.7403  -4.7350  -3.3841

          k = 0.0742 0.0000 0.0000 (101919 PWs)   bands (ev):

   -21.7340 -20.2462 -18.0280 -17.0927 -16.1246 -15.2245 -15.1756 -13.3506
   -12.7675 -12.0092 -10.8005 -10.7769  -9.9217  -9.8042  -8.6541  -8.1768
    -8.1686  -6.8760  -6.3968  -5.7323  -4.8544  -3.5680

          k = 0.0990 0.0000 0.0000 (101897 PWs)   bands (ev):

   -21.7090 -20.2226 -18.0197 -17.2880 -16.2705 -15.1060 -14.9901 -13.4896
   -12.6464 -11.9256 -10.8923 -10.7097  -9.8658  -9.7743  -8.6086  -8.2465
    -8.1493  -6.9111  -6.4519  -5.7219  -5.0059  -3.7598

          k = 0.1237 0.0000 0.0000 (101901 PWs)   bands (ev):

   -21.6768 -20.1923 -18.0172 -17.4800 -16.4292 -15.0372 -14.7412 -13.6401
   -12.5006 -11.8402 -11.0193 -10.5991  -9.8069  -9.7359  -8.5588  -8.3409
    -8.1140  -6.9609  -6.5209  -5.7101  -5.1792  -3.9549

          k = 0.1485 0.0000 0.0000 (101833 PWs)   bands (ev):

   -21.6376 -20.1554 -18.0381 -17.6456 -16.5957 -14.9695 -14.4857 -13.7942
   -12.3360 -11.7548 -11.1522 -10.4731  -9.7456  -9.6889  -8.5091  -8.4488
    -8.0709  -7.0272  -6.6025  -5.7012  -5.3631  -4.1515

          k = 0.1732 0.0000 0.0000 (101783 PWs)   bands (ev):

   -21.5912 -20.1119 -18.1199 -17.7445 -16.7668 -14.9025 -14.2394 -13.9358
   -12.1600 -11.6694 -11.2848 -10.3366  -9.6818  -9.6336  -8.5671  -8.4639
    -8.0201  -7.1116  -6.6952  -5.7173  -5.5299  -4.3482

          k = 0.1979 0.0000 0.0000 (101769 PWs)   bands (ev):

   -21.5378 -20.0618 -18.2705 -17.7675 -16.9401 -14.8354 -14.1694 -13.8972
   -11.9871 -11.5826 -11.4040 -10.1942  -9.6147  -9.5697  -8.6932  -8.4267
    -7.9617  -7.2149  -6.7976  -5.8400  -5.5941  -4.5443

          k = 0.2227 0.0000 0.0000 (101783 PWs)   bands (ev):

   -21.4773 -20.0054 -18.4522 -17.7517 -17.1139 -14.7675 -14.3038 -13.6501
   -11.8635 -11.4932 -11.4648 -10.0503  -9.5441  -9.4975  -8.8240  -8.4009
    -7.8957  -7.3372  -6.9081  -6.0342  -5.5881  -4.7389

          k = 0.2474 0.0000 0.0000 (101761 PWs)   bands (ev):

   -21.4098 -19.9428 -18.6423 -17.7195 -17.2867 -14.6983 -14.4530 -13.3843
   -11.8760 -11.3999 -11.3816  -9.9096  -9.4694  -9.4170  -8.9566  -8.3891
    -7.8223  -7.4781  -7.0252  -6.2419  -5.5681  -4.9314

          k = 0.2722 0.0000 0.0000 (101789 PWs)   bands (ev):

   -21.3354 -19.8741 -18.8330 -17.6792 -17.4572 -14.6278 -14.5995 -13.1175
   -11.9791 -11.3016 -11.2009  -9.7775  -9.3905  -9.3282  -9.0864  -8.3934
    -7.7415  -7.6366  -7.1475  -6.4519  -5.5442  -5.1212

          k = 0.2969 0.0000 0.0000 (101780 PWs)   bands (ev):

   -21.2540 -19.7997 -19.0208 -17.6343 -17.6244 -14.7396 -14.5560 -12.8542
   -12.1047 -11.1977 -10.9912  -9.6641  -9.3073  -9.2312  -9.2040  -8.4152
    -7.8109  -7.6537  -7.2735  -6.6607  -5.5191  -5.3078

          k = 0.3216 0.0000 0.0000 (101754 PWs)   bands (ev):

   -21.1658 -19.7199 -19.2045 -17.7872 -17.5872 -14.8711 -14.4836 -12.5977
   -12.2333 -11.0879 -10.7727  -9.5962  -9.2823  -9.2202  -9.1261  -8.4555
    -7.9991  -7.5589  -7.4017  -6.8666  -5.4942  -5.4905

          k = 0.3464 0.0000 0.0000 (101782 PWs)   bands (ev):

   -21.0710 -19.6354 -19.3829 -17.9445 -17.5398 -14.9921 -14.4117 -12.3580
   -12.3516 -10.9732 -10.5524  -9.6169  -9.2768  -9.1294  -9.0129  -8.5146
    -8.1985  -7.5306  -7.4575  -7.0686  -5.6687  -5.4703

          k = 0.3711 0.0000 0.0000 (101756 PWs)   bands (ev):

   -20.9696 -19.5555 -19.5472 -18.0950 -17.4940 -15.1004 -14.3417 -12.4747
   -12.1202 -10.8564 -10.3344  -9.6941  -9.2163  -9.0361  -8.8919  -8.5920
    -8.4055  -7.6582  -7.3499  -7.2656  -5.8417  -5.4485

          k = 0.3959 0.0000 0.0000 (101800 PWs)   bands (ev):

   -20.8620 -19.7215 -19.4569 -18.2365 -17.4520 -15.1937 -14.2761 -12.5797
   -11.9090 -10.7451 -10.1220  -9.7708  -9.1505  -8.9420  -8.7633  -8.6865
    -8.6151  -7.7822  -7.4571  -7.2372  -6.0084  -5.4294

          k = 0.4206 0.0000 0.0000 (101842 PWs)   bands (ev):

   -20.7490 -19.8802 -19.3677 -18.3658 -17.4160 -15.2699 -14.2181 -12.6691
   -11.7246 -10.6532  -9.9191  -9.8148  -9.1022  -8.8548  -8.8158  -8.7911
    -8.6272  -7.8987  -7.6424  -7.1208  -6.1668  -5.4137

          k = 0.4454 0.0000 0.0000 (101850 PWs)   bands (ev):

   -20.6326 -20.0294 -19.2859 -18.4764 -17.3882 -15.3264 -14.1718 -12.7381
   -11.5765 -10.5978  -9.8034  -9.7322  -9.1202  -8.9556  -8.9211  -8.7597
    -8.4846  -8.0012  -7.8203  -7.0048  -6.3129  -5.4021

          k = 0.4701 0.0000 0.0000 (101830 PWs)   bands (ev):

   -20.5203 -20.1613 -19.2235 -18.5560 -17.3706 -15.3613 -14.1415 -12.7821
   -11.4774 -10.5795  -9.7405  -9.5774  -9.2479  -9.0342  -8.9737  -8.6959
    -8.3383  -8.0769  -7.9879  -6.9019  -6.4340  -5.3949

          k =-0.4948 0.0000 0.0000 (101844 PWs)   bands (ev):

   -20.4565 -20.2318 -19.1990 -18.5863 -17.3645 -15.3731 -14.1309 -12.7973
   -11.4420 -10.5779  -9.6931  -9.5064  -9.3242  -9.0915  -8.9706  -8.6705
    -8.2308  -8.1062  -8.1024  -6.8527  -6.4893  -5.3925

     highest occupied level (ev):    -3.1427

!    total energy              =    -118.59574044 Ry
     estimated scf accuracy    <          5.5E-11 Ry

     The total energy is the sum of the following terms:
     one-electron contribution =    -793.20144779 Ry
     hartree contribution      =     402.29126693 Ry
     xc contribution           =     -37.82413641 Ry
     ewald contribution        =     310.13857683 Ry

     convergence has been achieved in  26 iterations

     Forces acting on atoms (cartesian axes, Ry/au):

     atom    1 type  1   force =    -0.00008263   -0.00016106    0.00000000
     atom    2 type  1   force =     0.00001338   -0.00028957    0.00000000
     atom    3 type  1   force =     0.00008263   -0.00016106    0.00000000
     atom    4 type  1   force =     0.00008400    0.00037916    0.00000000
     atom    5 type  1   force =     0.00001530    0.00006624    0.00000000
     atom    6 type  1   force =    -0.00001338   -0.00028957    0.00000000
     atom    7 type  1   force =    -0.00008400    0.00037916    0.00000000
     atom    8 type  1   force =    -0.00021242   -0.00033986    0.00000000
     atom    9 type  1   force =    -0.00001530    0.00006624    0.00000000
     atom   10 type  1   force =     0.00021242   -0.00033986    0.00000000
     atom   11 type  2   force =    -0.00026137    0.00003649    0.00000000
     atom   12 type  2   force =     0.00026137    0.00003649    0.00000000
     atom   13 type  2   force =    -0.00026665    0.00030860    0.00000000
     atom   14 type  2   force =     0.00026665    0.00030860    0.00000000

     Total force =     0.001157     Total SCF correction =     0.000006


     Computing stress (Cartesian axis) and pressure

          total   stress  (Ry/bohr**3)                   (kbar)     P=        0.00
  -0.00000111   0.00000000   0.00000000           -0.16        0.00        0.00
   0.00000000   0.00000113   0.00000000            0.00        0.17        0.00
   0.00000000   0.00000000   0.00000007            0.00        0.00        0.01


     Writing output data file ./5AGNR.save/
 
     init_run     :      7.52s CPU      8.11s WALL (       2 calls)
     electrons    :   1248.99s CPU   1324.41s WALL (      10 calls)
     update_pot   :      5.96s CPU      5.99s WALL (       8 calls)
     forces       :      9.08s CPU      9.23s WALL (      10 calls)
     stress       :     29.70s CPU     29.80s WALL (      10 calls)

     Called by init_run:
     wfcinit      :      5.92s CPU      6.38s WALL (       2 calls)
     potinit      :      0.70s CPU      0.73s WALL (       2 calls)
     hinit0       :      0.43s CPU      0.49s WALL (       2 calls)

     Called by electrons:
     c_bands      :    751.74s CPU    794.96s WALL (     158 calls)
     sum_band     :    106.56s CPU    114.84s WALL (     158 calls)
     v_of_rho     :      5.51s CPU      5.82s WALL (     166 calls)
     newd         :      3.93s CPU      4.03s WALL (     166 calls)
     mix_rho      :    381.38s CPU    404.63s WALL (     158 calls)

     Called by c_bands:
     init_us_2    :     20.26s CPU     20.41s WALL (    7098 calls)
     cegterg      :    692.55s CPU    735.32s WALL (    3318 calls)

     Called by *egterg:
     cdiaghg      :     59.82s CPU     60.14s WALL (   12852 calls)
     h_psi        :    454.96s CPU    496.95s WALL (   13104 calls)
     s_psi        :     35.26s CPU     35.42s WALL (   13104 calls)
     g_psi        :      3.74s CPU      3.78s WALL (    9744 calls)

     Called by h_psi:
     h_psi:calbec :     34.89s CPU     35.50s WALL (   13104 calls)
     vloc_psi     :    379.21s CPU    420.37s WALL (   13104 calls)
     add_vuspsi   :     36.19s CPU     36.40s WALL (   13104 calls)

     General routines
     calbec       :     49.80s CPU     50.50s WALL (   17472 calls)
     fft          :      4.44s CPU      4.83s WALL (    1916 calls)
     ffts         :    199.34s CPU    221.57s WALL (  118806 calls)
     fftw         :    423.84s CPU    470.44s WALL (  456854 calls)
 
     Parallel routines
     fft_scatt_xy :     50.38s CPU     53.86s WALL (  577576 calls)
     fft_scatt_yz :    348.24s CPU    402.02s WALL (  577576 calls)
 
     PWSCF        :  21m42.30s CPU  22m59.61s WALL

 
   This run was terminated on:   9:32:19   9Feb2022            

=------------------------------------------------------------------------------=
   JOB DONE.
=------------------------------------------------------------------------------=
