
     Program PWSCF v.6.7MaX starts on  7Dec2021 at 14:23:41 

     This program is part of the open-source Quantum ESPRESSO suite
     for quantum simulation of materials; please cite
         "P. Giannozzi et al., J. Phys.:Condens. Matter 21 395502 (2009);
         "P. Giannozzi et al., J. Phys.:Condens. Matter 29 465901 (2017);
          URL http://www.quantum-espresso.org", 
     in publications or presentations arising from this work. More details at
     http://www.quantum-espresso.org/quote

     Parallel version (MPI), running on    10 processors

     MPI processes distributed on     1 nodes
     R & G space division:  proc/nbgrp/npool/nimage =      10
     Waiting for input...
     Reading input from standard input

     Current dimensions of program PWSCF are:
     Max number of different atomic species (ntypx) = 10
     Max number of k-points (npk) =  40000
     Max angular momentum in pseudopotentials (lmaxx) =  3
     file B.pbe-n-rrkjus_psl.1.0.0.UPF: wavefunction(s)  2S renormalized
     file N.pbe-rrkjus.UPF: wavefunction(s)  2S renormalized

     Subspace diagonalization in iterative solution of the eigenvalue problem:
     one sub-group per band group will be used
     scalapack distributed-memory algorithm (size of sub-group:  3*  3 procs)

 
     Parallelization info
     --------------------
     sticks:   dense  smooth     PW     G-vecs:    dense   smooth      PW
     Min         477     477    136                68351    68351   10516
     Max         478     478    137                68360    68360   10523
     Sum        4771    4771   1369               683529   683529  105203
 


     bravais-lattice index     =            8
     lattice parameter (alat)  =       4.9525  a.u.
     unit-cell volume          =    7074.2618 (a.u.)^3
     number of atoms/cell      =            2
     number of atomic types    =            2
     number of electrons       =         8.00
     number of Kohn-Sham states=            4
     kinetic-energy cutoff     =      80.0000  Ry
     charge density cutoff     =     320.0000  Ry
     scf convergence threshold =      1.0E-08
     mixing beta               =       0.5000
     number of iterations used =            8  local-TF  mixing
     Exchange-correlation=  SLA  PW   PBE  PBE
                           (   1   4   3   4   0   0   0)

     celldm(1)=   4.952488  celldm(2)=   7.631422  celldm(3)=   7.631422
     celldm(4)=   0.000000  celldm(5)=   0.000000  celldm(6)=   0.000000

     crystal axes: (cart. coord. in units of alat)
               a(1) = (   1.000000   0.000000   0.000000 )  
               a(2) = (   0.000000   7.631422   0.000000 )  
               a(3) = (   0.000000   0.000000   7.631422 )  

     reciprocal axes: (cart. coord. in units 2 pi/alat)
               b(1) = (  1.000000  0.000000  0.000000 )  
               b(2) = (  0.000000  0.131037  0.000000 )  
               b(3) = (  0.000000  0.000000  0.131037 )  


     PseudoPot. # 1 for B  read from file:
     ../Pseudo/B.pbe-n-rrkjus_psl.1.0.0.UPF
     MD5 check sum: 63df43e07c319b5f28dc02596645f850
     Pseudo is Ultrasoft + core correction, Zval =  3.0
     Generated using "atomic" code by A. Dal Corso  v.5.1.2
     Using radial grid of 1059 points,  4 beta functions with: 
                l(1) =   0
                l(2) =   0
                l(3) =   1
                l(4) =   1
     Q(r) pseudized with 0 coefficients 


     PseudoPot. # 2 for N  read from file:
     ../Pseudo/N.pbe-rrkjus.UPF
     MD5 check sum: 0c3fbe5807a93f9ba59d5a7019aa238b
     Pseudo is Ultrasoft, Zval =  5.0
     Generated by new atomic code, or converted to UPF format
     Using radial grid of 1257 points,  4 beta functions with: 
                l(1) =   0
                l(2) =   0
                l(3) =   1
                l(4) =   1
     Q(r) pseudized with 0 coefficients 


     atomic species   valence    mass     pseudopotential
        B              3.00    10.81100     B ( 1.00)
        N              5.00    14.00670     N ( 1.00)

      8 Sym. Ops. (no inversion) found



   Cartesian axes

     site n.     atom                  positions (alat units)
         1           B   tau(   1) = (  -0.1411180   0.0000000   0.0000000  )
         2           N   tau(   2) = (   0.3587818   0.0000000   0.0000000  )

     number of k points=    10
                       cart. coord. in units 2pi/alat
        k(    1) = (   0.0000000   0.0000000   0.0000000), wk =   0.1111111
        k(    2) = (   0.0555556   0.0000000   0.0000000), wk =   0.2222222
        k(    3) = (   0.1111111   0.0000000   0.0000000), wk =   0.2222222
        k(    4) = (   0.1666667   0.0000000   0.0000000), wk =   0.2222222
        k(    5) = (   0.2222222   0.0000000   0.0000000), wk =   0.2222222
        k(    6) = (   0.2777778   0.0000000   0.0000000), wk =   0.2222222
        k(    7) = (   0.3333333   0.0000000   0.0000000), wk =   0.2222222
        k(    8) = (   0.3888889   0.0000000   0.0000000), wk =   0.2222222
        k(    9) = (   0.4444444   0.0000000   0.0000000), wk =   0.2222222
        k(   10) = (  -0.5000000   0.0000000   0.0000000), wk =   0.1111111

     Dense  grid:   683529 G-vectors     FFT dimensions: (  30, 216, 216)

     Estimated max dynamical RAM per process >     101.09 MB

     Estimated total dynamical RAM >    1010.92 MB

     Initial potential from superposition of free atoms

     starting charge    7.99971, renormalised to    8.00000

     negative rho (up, down):  3.813E-04 0.000E+00
     Starting wfcs are    8 randomized atomic wfcs

     total cpu time spent up to now is        2.2 secs

     Self-consistent Calculation

     iteration #  1     ecut=    80.00 Ry     beta= 0.50
     Davidson diagonalization with overlap
     ethr =  1.00E-02,  avg # of iterations =  2.0

     negative rho (up, down):  9.877E-07 0.000E+00

     total cpu time spent up to now is       15.7 secs

     total energy              =     -26.23887705 Ry
     estimated scf accuracy    <       0.66383613 Ry

     iteration #  2     ecut=    80.00 Ry     beta= 0.50
     Davidson diagonalization with overlap
     ethr =  8.30E-03,  avg # of iterations =  1.5

     negative rho (up, down):  1.135E-06 0.000E+00

     total cpu time spent up to now is       20.0 secs

     total energy              =     -26.22166158 Ry
     estimated scf accuracy    <       0.16720698 Ry

     iteration #  3     ecut=    80.00 Ry     beta= 0.50
     Davidson diagonalization with overlap
     ethr =  2.09E-03,  avg # of iterations =  2.1

     negative rho (up, down):  6.356E-07 0.000E+00

     total cpu time spent up to now is       23.3 secs

     total energy              =     -26.24304071 Ry
     estimated scf accuracy    <       0.02969644 Ry

     iteration #  4     ecut=    80.00 Ry     beta= 0.50
     Davidson diagonalization with overlap
     ethr =  3.71E-04,  avg # of iterations =  2.7

     negative rho (up, down):  2.116E-07 0.000E+00

     total cpu time spent up to now is       26.5 secs

     total energy              =     -26.24242267 Ry
     estimated scf accuracy    <       0.01360640 Ry

     iteration #  5     ecut=    80.00 Ry     beta= 0.50
     Davidson diagonalization with overlap
     ethr =  1.70E-04,  avg # of iterations =  2.3

     negative rho (up, down):  5.505E-08 0.000E+00

     total cpu time spent up to now is       29.4 secs

     total energy              =     -26.24367754 Ry
     estimated scf accuracy    <       0.00697822 Ry

     iteration #  6     ecut=    80.00 Ry     beta= 0.50
     Davidson diagonalization with overlap
     ethr =  8.72E-05,  avg # of iterations =  1.3

     negative rho (up, down):  2.998E-02 0.000E+00

     total cpu time spent up to now is       32.4 secs

     total energy              =     -26.24268017 Ry
     estimated scf accuracy    <       0.00382696 Ry

     iteration #  7     ecut=    80.00 Ry     beta= 0.50
     Davidson diagonalization with overlap
     ethr =  4.78E-05,  avg # of iterations =  2.1

     negative rho (up, down):  2.054E-02 0.000E+00

     total cpu time spent up to now is       37.1 secs

     total energy              =     -26.24295106 Ry
     estimated scf accuracy    <       0.00209134 Ry

     iteration #  8     ecut=    80.00 Ry     beta= 0.50
     Davidson diagonalization with overlap
     ethr =  2.61E-05,  avg # of iterations =  1.5

     negative rho (up, down):  2.337E-02 0.000E+00

     total cpu time spent up to now is       43.9 secs

     total energy              =     -26.24305720 Ry
     estimated scf accuracy    <       0.00079891 Ry

     iteration #  9     ecut=    80.00 Ry     beta= 0.50
     Davidson diagonalization with overlap
     ethr =  9.99E-06,  avg # of iterations =  2.4

     negative rho (up, down):  1.175E-02 0.000E+00

     total cpu time spent up to now is       53.3 secs

     total energy              =     -26.24262872 Ry
     estimated scf accuracy    <       0.00085265 Ry

     iteration # 10     ecut=    80.00 Ry     beta= 0.50
     Davidson diagonalization with overlap
     ethr =  9.99E-06,  avg # of iterations =  4.2

     negative rho (up, down):  5.789E-03 0.000E+00

     total cpu time spent up to now is       60.6 secs

     total energy              =     -26.24249441 Ry
     estimated scf accuracy    <       0.00119626 Ry

     iteration # 11     ecut=    80.00 Ry     beta= 0.50
     Davidson diagonalization with overlap
     ethr =  9.99E-06,  avg # of iterations =  2.7

     negative rho (up, down):  2.812E-03 0.000E+00

     total cpu time spent up to now is       69.2 secs

     total energy              =     -26.24281559 Ry
     estimated scf accuracy    <       0.00007930 Ry

     iteration # 12     ecut=    80.00 Ry     beta= 0.50
     Davidson diagonalization with overlap
     ethr =  9.91E-07,  avg # of iterations =  2.2

     negative rho (up, down):  2.425E-03 0.000E+00

     total cpu time spent up to now is       80.9 secs

     total energy              =     -26.24283028 Ry
     estimated scf accuracy    <       0.00000827 Ry

     iteration # 13     ecut=    80.00 Ry     beta= 0.50
     Davidson diagonalization with overlap
     ethr =  1.03E-07,  avg # of iterations =  2.6

     negative rho (up, down):  2.175E-03 0.000E+00

     total cpu time spent up to now is       95.8 secs

     total energy              =     -26.24283262 Ry
     estimated scf accuracy    <       0.00000070 Ry

     iteration # 14     ecut=    80.00 Ry     beta= 0.50
     Davidson diagonalization with overlap
     ethr =  8.70E-09,  avg # of iterations =  2.2

     negative rho (up, down):  2.099E-03 0.000E+00

     total cpu time spent up to now is      104.6 secs

     total energy              =     -26.24283272 Ry
     estimated scf accuracy    <       0.00000009 Ry

     iteration # 15     ecut=    80.00 Ry     beta= 0.50
     Davidson diagonalization with overlap
     ethr =  1.06E-09,  avg # of iterations =  2.5

     negative rho (up, down):  2.093E-03 0.000E+00

     total cpu time spent up to now is      112.4 secs

     total energy              =     -26.24283273 Ry
     estimated scf accuracy    <       0.00000001 Ry

     iteration # 16     ecut=    80.00 Ry     beta= 0.50
     Davidson diagonalization with overlap
     ethr =  1.80E-10,  avg # of iterations =  2.6

     negative rho (up, down):  2.097E-03 0.000E+00

     total cpu time spent up to now is      113.8 secs

     End of self-consistent calculation

          k = 0.0000 0.0000 0.0000 ( 85147 PWs)   bands (ev):

   -21.2883 -12.9923  -9.5436  -9.5436

          k = 0.0556 0.0000 0.0000 ( 85206 PWs)   bands (ev):

   -21.2740 -13.0359  -9.4853  -9.4853

          k = 0.1111 0.0000 0.0000 ( 85278 PWs)   bands (ev):

   -21.2324 -13.1604  -9.3115  -9.3115

          k = 0.1667 0.0000 0.0000 ( 85398 PWs)   bands (ev):

   -21.1669 -13.3488  -9.0248  -9.0248

          k = 0.2222 0.0000 0.0000 ( 85494 PWs)   bands (ev):

   -21.0837 -13.5767  -8.6309  -8.6309

          k = 0.2778 0.0000 0.0000 ( 85522 PWs)   bands (ev):

   -20.9913 -13.8164  -8.1405  -8.1405

          k = 0.3333 0.0000 0.0000 ( 85578 PWs)   bands (ev):

   -20.9004 -14.0401  -7.5753  -7.5753

          k = 0.3889 0.0000 0.0000 ( 85614 PWs)   bands (ev):

   -20.8231 -14.2219  -6.9819  -6.9819

          k = 0.4444 0.0000 0.0000 ( 85642 PWs)   bands (ev):

   -20.7710 -14.3407  -6.4686  -6.4686

          k =-0.5000 0.0000 0.0000 ( 85766 PWs)   bands (ev):

   -20.7525 -14.3820  -6.2467  -6.2467

     highest occupied level (ev):    -6.2467

!    total energy              =     -26.24283272 Ry
     estimated scf accuracy    <          5.6E-09 Ry

     The total energy is the sum of the following terms:
     one-electron contribution =    -103.40768711 Ry
     hartree contribution      =      52.70624027 Ry
     xc contribution           =      -7.99402870 Ry
     ewald contribution        =      32.45264283 Ry

     convergence has been achieved in  16 iterations

     negative rho (up, down):  2.097E-03 0.000E+00

     Forces acting on atoms (cartesian axes, Ry/au):

     atom    1 type  1   force =    -0.00055274    0.00000000    0.00000000
     atom    2 type  2   force =     0.00055274    0.00000000    0.00000000

     Total force =     0.000782     Total SCF correction =     0.000002


     Computing stress (Cartesian axis) and pressure


     negative rho (up, down):  2.097E-03 0.000E+00
          total   stress  (Ry/bohr**3)                   (kbar)     P=        0.00
   0.00000000   0.00000000   0.00000000            0.00        0.00        0.00
   0.00000000   0.00000000   0.00000000            0.00        0.00        0.00
   0.00000000   0.00000000   0.00000000            0.00        0.00        0.00


     Writing output data file ./Chain2atoms.save/
 
     init_run     :      1.88s CPU      2.04s WALL (       1 calls)
     electrons    :    105.33s CPU    111.68s WALL (       1 calls)
     forces       :      0.86s CPU      0.92s WALL (       1 calls)
     stress       :      1.75s CPU      1.87s WALL (       1 calls)

     Called by init_run:
     wfcinit      :      0.52s CPU      0.56s WALL (       1 calls)
     potinit      :      0.47s CPU      0.49s WALL (       1 calls)
     hinit0       :      0.64s CPU      0.67s WALL (       1 calls)

     Called by electrons:
     c_bands      :     13.22s CPU     13.76s WALL (      16 calls)
     sum_band     :      4.39s CPU      5.34s WALL (      16 calls)
     v_of_rho     :      1.53s CPU      1.60s WALL (      17 calls)
     newd         :      1.55s CPU      2.34s WALL (      17 calls)
     mix_rho      :     84.72s CPU     88.73s WALL (      16 calls)

     Called by c_bands:
     init_us_2    :      0.93s CPU      0.94s WALL (     350 calls)
     cegterg      :     11.74s CPU     12.27s WALL (     160 calls)

     Called by *egterg:
     cdiaghg      :      0.52s CPU      0.53s WALL (     529 calls)
     h_psi        :     10.31s CPU     10.84s WALL (     539 calls)
     s_psi        :      0.18s CPU      0.19s WALL (     539 calls)
     g_psi        :      0.09s CPU      0.09s WALL (     369 calls)

     Called by h_psi:
     h_psi:calbec :      0.27s CPU      0.28s WALL (     539 calls)
     vloc_psi     :      9.72s CPU     10.24s WALL (     539 calls)
     add_vuspsi   :      0.27s CPU      0.28s WALL (     539 calls)

     General routines
     calbec       :      0.41s CPU      0.42s WALL (     749 calls)
     fft          :      0.94s CPU      1.05s WALL (     212 calls)
     ffts         :     44.41s CPU     48.20s WALL (   10365 calls)
     fftw         :      9.94s CPU     10.52s WALL (    4542 calls)
 
     Parallel routines
     fft_scatt_xy :      7.31s CPU      7.38s WALL (   15119 calls)
     fft_scatt_yz :     20.01s CPU     24.04s WALL (   15119 calls)
 
     PWSCF        :   1m50.10s CPU   1m56.97s WALL

 
   This run was terminated on:  14:25:38   7Dec2021            

=------------------------------------------------------------------------------=
   JOB DONE.
=------------------------------------------------------------------------------=
