
     Program PHONON v.6.7MaX starts on  7Dec2021 at 14:25:38 

     This program is part of the open-source Quantum ESPRESSO suite
     for quantum simulation of materials; please cite
         "P. Giannozzi et al., J. Phys.:Condens. Matter 21 395502 (2009);
         "P. Giannozzi et al., J. Phys.:Condens. Matter 29 465901 (2017);
          URL http://www.quantum-espresso.org", 
     in publications or presentations arising from this work. More details at
     http://www.quantum-espresso.org/quote

     Parallel version (MPI), running on    20 processors

     MPI processes distributed on     1 nodes
     R & G space division:  proc/nbgrp/npool/nimage =      20
     Waiting for input...
     Reading input from standard input

     Reading xml data from directory:

     ./Chain2atoms.save/
     Message from routine qexsd_readschema :
     input info not found or not readable in xml file
     file B.pbe-n-rrkjus_psl.1.0.0.UPF: wavefunction(s)  2S renormalized
     file N.pbe-rrkjus.UPF: wavefunction(s)  2S renormalized

     IMPORTANT: XC functional enforced from input :
     Exchange-correlation= PBE
                           (   1   4   3   4   0   0   0)
     Any further DFT definition will be discarded
     Please, verify this is what you really want

 
     Parallelization info
     --------------------
     sticks:   dense  smooth     PW     G-vecs:    dense   smooth      PW
     Min         238     238     68                34170    34170    5258
     Max         239     239     69                34183    34183    5265
     Sum        4771    4771   1369               683529   683529  105203
 

     negative rho (up, down):  2.097E-03 0.000E+00
     Reading collected, re-writing distributed wavefunctions


     Dynamical matrices for ( 8, 1, 1)  uniform grid of q-points
     (   5 q-points):
       N         xq(1)         xq(2)         xq(3) 
       1   0.000000000   0.000000000   0.000000000
       2   0.125000000   0.000000000   0.000000000
       3   0.250000000   0.000000000   0.000000000
       4   0.375000000   0.000000000   0.000000000
       5  -0.500000000   0.000000000   0.000000000

     Calculation of q =    0.0000000   0.0000000   0.0000000

                                                                                

     bravais-lattice index     =            8
     lattice parameter (alat)  =       4.9525  a.u.
     unit-cell volume          =    7074.2618 (a.u.)^3
     number of atoms/cell      =            2
     number of atomic types    =            2
     kinetic-energy cut-off    =      80.0000  Ry
     charge density cut-off    =     320.0000  Ry
     convergence threshold     =      1.0E-20
     beta                      =       0.7000
     number of iterations used =            4
     Exchange-correlation= PBE
                           (   1   4   3   4   0   0   0)


     celldm(1)=    4.95249  celldm(2)=    7.63142  celldm(3)=    7.63142
     celldm(4)=    0.00000  celldm(5)=    0.00000  celldm(6)=    0.00000

     crystal axes: (cart. coord. in units of alat)
               a(1) = (  1.0000  0.0000  0.0000 )  
               a(2) = (  0.0000  7.6314  0.0000 )  
               a(3) = (  0.0000  0.0000  7.6314 )  

     reciprocal axes: (cart. coord. in units 2 pi/alat)
               b(1) = (  1.0000  0.0000  0.0000 )  
               b(2) = (  0.0000  0.1310  0.0000 )  
               b(3) = (  0.0000  0.0000  0.1310 )  


     Atoms inside the unit cell: 

     Cartesian axes

     site n.  atom      mass           positions (alat units)
        1     B   10.8110   tau(    1) = (   -0.14112    0.00000    0.00000  )
        2     N   14.0067   tau(    2) = (    0.35878    0.00000    0.00000  )

     Computing dynamical matrix for 
                    q = (   0.0000000   0.0000000   0.0000000 )
 
      9 Sym.Ops. (with q -> -q+G )


     G cutoff =  198.8095  (  34172 G-vectors)     FFT grid: ( 30,216,216)
     number of k points=    10

     PseudoPot. # 1 for B  read from file:
     ../Pseudo/B.pbe-n-rrkjus_psl.1.0.0.UPF
     MD5 check sum: 63df43e07c319b5f28dc02596645f850
     Pseudo is Ultrasoft + core correction, Zval =  3.0
     Generated using "atomic" code by A. Dal Corso  v.5.1.2
     Using radial grid of 1059 points,  4 beta functions with: 
                l(1) =   0
                l(2) =   0
                l(3) =   1
                l(4) =   1
     Q(r) pseudized with 0 coefficients 


     PseudoPot. # 2 for N  read from file:
     ../Pseudo/N.pbe-rrkjus.UPF
     MD5 check sum: 0c3fbe5807a93f9ba59d5a7019aa238b
     Pseudo is Ultrasoft, Zval =  5.0
     Generated by new atomic code, or converted to UPF format
     Using radial grid of 1257 points,  4 beta functions with: 
                l(1) =   0
                l(2) =   0
                l(3) =   1
                l(4) =   1
     Q(r) pseudized with 0 coefficients 


     Mode symmetry, C_4v (4mm)  point group:


     Electric field:
     Dielectric constant
     Born effective charges in two ways 


     Atomic displacements:
     There are    4 irreducible representations

     Representation     1      1 modes -  To be done

     Representation     2      1 modes -  To be done

     Representation     3      2 modes -  To be done

     Representation     4      2 modes -  To be done



     Alpha used in Ewald sum =   2.8000

     negative rho (up, down):  2.097E-03 0.000E+00
     PHONON       :      4.20s CPU      4.41s WALL


     Electric Fields Calculation

      iter #   1 total cpu time :    19.9 secs   av.it.:   6.7
      thresh= 1.000E-02 alpha_mix =  0.700 |ddv_scf|^2 =  1.341E-07

      iter #   2 total cpu time :    27.7 secs   av.it.:  11.3
      thresh= 3.662E-05 alpha_mix =  0.700 |ddv_scf|^2 =  5.965E-09

      iter #   3 total cpu time :    35.5 secs   av.it.:  11.4
      thresh= 7.723E-06 alpha_mix =  0.700 |ddv_scf|^2 =  5.859E-10

      iter #   4 total cpu time :    43.0 secs   av.it.:  11.0
      thresh= 2.420E-06 alpha_mix =  0.700 |ddv_scf|^2 =  1.681E-12

      iter #   5 total cpu time :    50.9 secs   av.it.:  11.7
      thresh= 1.297E-07 alpha_mix =  0.700 |ddv_scf|^2 =  6.396E-15

      iter #   6 total cpu time :    59.2 secs   av.it.:  12.2
      thresh= 7.998E-09 alpha_mix =  0.700 |ddv_scf|^2 =  2.045E-15

      iter #   7 total cpu time :    66.9 secs   av.it.:  11.4
      thresh= 4.522E-09 alpha_mix =  0.700 |ddv_scf|^2 =  5.693E-17

      iter #   8 total cpu time :    75.1 secs   av.it.:  12.3
      thresh= 7.545E-10 alpha_mix =  0.700 |ddv_scf|^2 =  4.953E-19

      iter #   9 total cpu time :    82.7 secs   av.it.:  11.3
      thresh= 7.038E-11 alpha_mix =  0.700 |ddv_scf|^2 =  5.637E-20

      iter #  10 total cpu time :    90.7 secs   av.it.:  12.0
      thresh= 2.374E-11 alpha_mix =  0.700 |ddv_scf|^2 =  7.015E-22

     End of electric fields calculation

          Dielectric constant in cartesian axis 

          (       1.187375343       0.000000000       0.000000000 )
          (       0.000000000       1.020407615       0.000000000 )
          (       0.000000000       0.000000000       1.020407615 )

          Effective charges (d Force / dE) in cartesian axis

           atom      1   B  
      Ex  (        7.37665        0.00000        0.00000 )
      Ey  (        0.00000        0.45610        0.00000 )
      Ez  (        0.00000        0.00000        0.45610 )
           atom      2   N  
      Ex  (       -7.37143        0.00000        0.00000 )
      Ey  (        0.00000       -0.45625        0.00000 )
      Ez  (        0.00000        0.00000       -0.45625 )


     Representation #   1 mode #   1

     Self-consistent Calculation

      iter #   1 total cpu time :    97.4 secs   av.it.:   6.0
      thresh= 1.000E-02 alpha_mix =  0.700 |ddv_scf|^2 =  4.403E-09

      iter #   2 total cpu time :   100.4 secs   av.it.:  11.9
      thresh= 6.635E-06 alpha_mix =  0.700 |ddv_scf|^2 =  7.396E-11

      iter #   3 total cpu time :   103.4 secs   av.it.:  12.0
      thresh= 8.600E-07 alpha_mix =  0.700 |ddv_scf|^2 =  3.586E-12

      iter #   4 total cpu time :   106.2 secs   av.it.:  10.8
      thresh= 1.894E-07 alpha_mix =  0.700 |ddv_scf|^2 =  9.162E-15

      iter #   5 total cpu time :   109.2 secs   av.it.:  12.3
      thresh= 9.572E-09 alpha_mix =  0.700 |ddv_scf|^2 =  3.595E-16

      iter #   6 total cpu time :   112.2 secs   av.it.:  12.0
      thresh= 1.896E-09 alpha_mix =  0.700 |ddv_scf|^2 =  6.129E-18

      iter #   7 total cpu time :   115.2 secs   av.it.:  12.0
      thresh= 2.476E-10 alpha_mix =  0.700 |ddv_scf|^2 =  6.116E-20

      iter #   8 total cpu time :   118.3 secs   av.it.:  12.6
      thresh= 2.473E-11 alpha_mix =  0.700 |ddv_scf|^2 =  1.626E-21

     End of self-consistent calculation

     Convergence has been achieved 


     Representation #   2 mode #   2

     Self-consistent Calculation

      iter #   1 total cpu time :   120.8 secs   av.it.:   5.9
      thresh= 1.000E-02 alpha_mix =  0.700 |ddv_scf|^2 =  1.182E-07

      iter #   2 total cpu time :   123.4 secs   av.it.:   9.8
      thresh= 3.437E-05 alpha_mix =  0.700 |ddv_scf|^2 =  1.066E-08

      iter #   3 total cpu time :   126.0 secs   av.it.:   9.3
      thresh= 1.032E-05 alpha_mix =  0.700 |ddv_scf|^2 =  2.292E-12

      iter #   4 total cpu time :   129.1 secs   av.it.:  12.3
      thresh= 1.514E-07 alpha_mix =  0.700 |ddv_scf|^2 =  2.089E-14

      iter #   5 total cpu time :   132.0 secs   av.it.:  12.1
      thresh= 1.445E-08 alpha_mix =  0.700 |ddv_scf|^2 =  1.030E-14

      iter #   6 total cpu time :   135.0 secs   av.it.:  12.1
      thresh= 1.015E-08 alpha_mix =  0.700 |ddv_scf|^2 =  1.278E-16

      iter #   7 total cpu time :   138.0 secs   av.it.:  12.0
      thresh= 1.130E-09 alpha_mix =  0.700 |ddv_scf|^2 =  1.841E-19

      iter #   8 total cpu time :   140.9 secs   av.it.:  11.9
      thresh= 4.291E-11 alpha_mix =  0.700 |ddv_scf|^2 =  5.743E-21

     End of self-consistent calculation

     Convergence has been achieved 


     Representation #   3 modes #   3   4

     Self-consistent Calculation

      iter #   1 total cpu time :   145.1 secs   av.it.:   5.7
      thresh= 1.000E-02 alpha_mix =  0.700 |ddv_scf|^2 =  9.675E-09

      iter #   2 total cpu time :   151.4 secs   av.it.:  11.1
      thresh= 9.836E-06 alpha_mix =  0.700 |ddv_scf|^2 =  9.052E-10

      iter #   3 total cpu time :   156.8 secs   av.it.:  11.3
      thresh= 3.009E-06 alpha_mix =  0.700 |ddv_scf|^2 =  6.308E-11

      iter #   4 total cpu time :   162.3 secs   av.it.:  11.6
      thresh= 7.942E-07 alpha_mix =  0.700 |ddv_scf|^2 =  1.249E-14

      iter #   5 total cpu time :   167.9 secs   av.it.:  11.7
      thresh= 1.117E-08 alpha_mix =  0.700 |ddv_scf|^2 =  2.231E-16

      iter #   6 total cpu time :   173.2 secs   av.it.:  10.8
      thresh= 1.494E-09 alpha_mix =  0.700 |ddv_scf|^2 =  1.287E-18

      iter #   7 total cpu time :   178.8 secs   av.it.:  11.7
      thresh= 1.134E-10 alpha_mix =  0.700 |ddv_scf|^2 =  1.074E-20

      iter #   8 total cpu time :   184.4 secs   av.it.:  11.3
      thresh= 1.037E-11 alpha_mix =  0.700 |ddv_scf|^2 =  3.503E-23

     End of self-consistent calculation

     Convergence has been achieved 


     Representation #   4 modes #   5   6

     Self-consistent Calculation

      iter #   1 total cpu time :   188.9 secs   av.it.:   6.0
      thresh= 1.000E-02 alpha_mix =  0.700 |ddv_scf|^2 =  1.329E-08

      iter #   2 total cpu time :   194.5 secs   av.it.:  11.9
      thresh= 1.153E-05 alpha_mix =  0.700 |ddv_scf|^2 =  1.693E-09

      iter #   3 total cpu time :   200.1 secs   av.it.:  11.5
      thresh= 4.115E-06 alpha_mix =  0.700 |ddv_scf|^2 =  8.174E-12

      iter #   4 total cpu time :   205.7 secs   av.it.:  11.5
      thresh= 2.859E-07 alpha_mix =  0.700 |ddv_scf|^2 =  9.808E-14

      iter #   5 total cpu time :   211.3 secs   av.it.:  11.8
      thresh= 3.132E-08 alpha_mix =  0.700 |ddv_scf|^2 =  9.280E-17

      iter #   6 total cpu time :   216.8 secs   av.it.:  11.3
      thresh= 9.633E-10 alpha_mix =  0.700 |ddv_scf|^2 =  4.189E-18

      iter #   7 total cpu time :   222.3 secs   av.it.:  11.7
      thresh= 2.047E-10 alpha_mix =  0.700 |ddv_scf|^2 =  2.943E-21

     End of self-consistent calculation

     Convergence has been achieved 
 
     Number of q in the star =    1
     List of q in the star:
          1   0.000000000   0.000000000   0.000000000

          Dielectric constant in cartesian axis 

          (       1.187375343       0.000000000       0.000000000 )
          (       0.000000000       1.020407615       0.000000000 )
          (       0.000000000       0.000000000       1.020407615 )

          Effective charges (d Force / dE) in cartesian axis

           atom      1   B  
      Ex  (        7.37665        0.00000        0.00000 )
      Ey  (        0.00000        0.45610        0.00000 )
      Ez  (        0.00000        0.00000        0.45610 )
           atom      2   N  
      Ex  (       -7.37143        0.00000        0.00000 )
      Ey  (        0.00000       -0.45625        0.00000 )
      Ez  (        0.00000        0.00000       -0.45625 )

          Effective charges (d P / du) in cartesian axis 

           atom      1   B  
      Px  (        7.37666        0.00000        0.00000 )
      Py  (        0.00000        0.45611        0.00000 )
      Pz  (        0.00000        0.00000        0.45611 )
           atom      2   N  
      Px  (       -7.37139        0.00000        0.00000 )
      Py  (        0.00000       -0.45623        0.00000 )
      Pz  (        0.00000        0.00000       -0.45623 )

     Diagonalizing the dynamical matrix

     q = (    0.000000000   0.000000000   0.000000000 ) 

 **************************************************************************
     freq (    1) =      -1.108827 [THz] =     -36.986476 [cm-1]
     freq (    2) =      -1.108827 [THz] =     -36.986476 [cm-1]
     freq (    3) =       5.021759 [THz] =     167.507850 [cm-1]
     freq (    4) =      14.698043 [THz] =     490.273951 [cm-1]
     freq (    5) =      14.698043 [THz] =     490.273951 [cm-1]
     freq (    6) =      54.544349 [THz] =    1819.403627 [cm-1]
 **************************************************************************

     Mode symmetry, C_4v (4mm)  point group:

     freq (   1-   2) =        -37.0  [cm-1]   --> E    G_5 D_5    I+R
     freq (   3-   3) =        167.5  [cm-1]   --> A_1  G_1 D_1    I+R
     freq (   4-   5) =        490.3  [cm-1]   --> E    G_5 D_5    I+R
     freq (   6-   6) =       1819.4  [cm-1]   --> A_1  G_1 D_1    I+R

     Calculation of q =    0.1250000   0.0000000   0.0000000

     Subspace diagonalization in iterative solution of the eigenvalue problem:
     one sub-group per band group will be used
     scalapack distributed-memory algorithm (size of sub-group:  4*  4 procs)

 
     Parallelization info
     --------------------
     sticks:   dense  smooth     PW     G-vecs:    dense   smooth      PW
     Min         238     238     69                34170    34170    5399
     Max         239     239     70                34183    34183    5412
     Sum        4771    4771   1391               683529   683529  108107
 


     bravais-lattice index     =            8
     lattice parameter (alat)  =       4.9525  a.u.
     unit-cell volume          =    7074.2618 (a.u.)^3
     number of atoms/cell      =            2
     number of atomic types    =            2
     number of electrons       =         8.00
     number of Kohn-Sham states=            4
     kinetic-energy cutoff     =      80.0000  Ry
     charge density cutoff     =     320.0000  Ry
     Exchange-correlation= PBE
                           (   1   4   3   4   0   0   0)

     celldm(1)=   4.952488  celldm(2)=   7.631422  celldm(3)=   7.631422
     celldm(4)=   0.000000  celldm(5)=   0.000000  celldm(6)=   0.000000

     crystal axes: (cart. coord. in units of alat)
               a(1) = (   1.000000   0.000000   0.000000 )  
               a(2) = (   0.000000   7.631422   0.000000 )  
               a(3) = (   0.000000   0.000000   7.631422 )  

     reciprocal axes: (cart. coord. in units 2 pi/alat)
               b(1) = (  1.000000  0.000000  0.000000 )  
               b(2) = (  0.000000  0.131037  0.000000 )  
               b(3) = (  0.000000  0.000000  0.131037 )  


     PseudoPot. # 1 for B  read from file:
     ../Pseudo/B.pbe-n-rrkjus_psl.1.0.0.UPF
     MD5 check sum: 63df43e07c319b5f28dc02596645f850
     Pseudo is Ultrasoft + core correction, Zval =  3.0
     Generated using "atomic" code by A. Dal Corso  v.5.1.2
     Using radial grid of 1059 points,  4 beta functions with: 
                l(1) =   0
                l(2) =   0
                l(3) =   1
                l(4) =   1
     Q(r) pseudized with 0 coefficients 


     PseudoPot. # 2 for N  read from file:
     ../Pseudo/N.pbe-rrkjus.UPF
     MD5 check sum: 0c3fbe5807a93f9ba59d5a7019aa238b
     Pseudo is Ultrasoft, Zval =  5.0
     Generated by new atomic code, or converted to UPF format
     Using radial grid of 1257 points,  4 beta functions with: 
                l(1) =   0
                l(2) =   0
                l(3) =   1
                l(4) =   1
     Q(r) pseudized with 0 coefficients 


     atomic species   valence    mass     pseudopotential
        B              3.00    10.81100     B ( 1.00)
        N              5.00    14.00670     N ( 1.00)

      8 Sym. Ops. (no inversion) found



   Cartesian axes

     site n.     atom                  positions (alat units)
         1           B   tau(   1) = (  -0.1411180   0.0000000   0.0000000  )
         2           N   tau(   2) = (   0.3587818   0.0000000   0.0000000  )

     number of k points=    36
                       cart. coord. in units 2pi/alat
        k(    1) = (   0.0000000   0.0000000   0.0000000), wk =   0.1111111
        k(    2) = (   0.1250000   0.0000000   0.0000000), wk =   0.0000000
        k(    3) = (   0.0555556   0.0000000   0.0000000), wk =   0.1111111
        k(    4) = (   0.1805556   0.0000000   0.0000000), wk =   0.0000000
        k(    5) = (   0.1111111   0.0000000   0.0000000), wk =   0.1111111
        k(    6) = (   0.2361111   0.0000000   0.0000000), wk =   0.0000000
        k(    7) = (   0.1666667   0.0000000   0.0000000), wk =   0.1111111
        k(    8) = (   0.2916667   0.0000000   0.0000000), wk =   0.0000000
        k(    9) = (   0.2222222   0.0000000   0.0000000), wk =   0.1111111
        k(   10) = (   0.3472222   0.0000000   0.0000000), wk =   0.0000000
        k(   11) = (   0.2777778   0.0000000   0.0000000), wk =   0.1111111
        k(   12) = (   0.4027778   0.0000000   0.0000000), wk =   0.0000000
        k(   13) = (   0.3333333   0.0000000   0.0000000), wk =   0.1111111
        k(   14) = (   0.4583333   0.0000000   0.0000000), wk =   0.0000000
        k(   15) = (   0.3888889   0.0000000   0.0000000), wk =   0.1111111
        k(   16) = (   0.5138889   0.0000000   0.0000000), wk =   0.0000000
        k(   17) = (   0.4444444   0.0000000   0.0000000), wk =   0.1111111
        k(   18) = (   0.5694444   0.0000000   0.0000000), wk =   0.0000000
        k(   19) = (  -0.5000000   0.0000000   0.0000000), wk =   0.1111111
        k(   20) = (  -0.3750000   0.0000000   0.0000000), wk =   0.0000000
        k(   21) = (  -0.0555556   0.0000000   0.0000000), wk =   0.1111111
        k(   22) = (   0.0694444   0.0000000   0.0000000), wk =   0.0000000
        k(   23) = (  -0.1111111   0.0000000   0.0000000), wk =   0.1111111
        k(   24) = (   0.0138889   0.0000000   0.0000000), wk =   0.0000000
        k(   25) = (  -0.1666667   0.0000000   0.0000000), wk =   0.1111111
        k(   26) = (  -0.0416667   0.0000000   0.0000000), wk =   0.0000000
        k(   27) = (  -0.2222222   0.0000000   0.0000000), wk =   0.1111111
        k(   28) = (  -0.0972222   0.0000000   0.0000000), wk =   0.0000000
        k(   29) = (  -0.2777778   0.0000000   0.0000000), wk =   0.1111111
        k(   30) = (  -0.1527778   0.0000000   0.0000000), wk =   0.0000000
        k(   31) = (  -0.3333333   0.0000000   0.0000000), wk =   0.1111111
        k(   32) = (  -0.2083333   0.0000000   0.0000000), wk =   0.0000000
        k(   33) = (  -0.3888889   0.0000000   0.0000000), wk =   0.1111111
        k(   34) = (  -0.2638889   0.0000000   0.0000000), wk =   0.0000000
        k(   35) = (  -0.4444444   0.0000000   0.0000000), wk =   0.1111111
        k(   36) = (  -0.3194444   0.0000000   0.0000000), wk =   0.0000000

     Dense  grid:   683529 G-vectors     FFT dimensions: (  30, 216, 216)

     Estimated max dynamical RAM per process >      36.01 MB

     Estimated total dynamical RAM >     720.24 MB

     The potential is recalculated from file :
     ./_ph0/Chain2atoms.save/charge-density


     negative rho (up, down):  2.097E-03 0.000E+00
     Starting wfcs are    8 atomic wfcs

     Band Structure Calculation
     Davidson diagonalization with overlap

     ethr =  1.25E-10,  avg # of iterations = 12.9

     total cpu time spent up to now is        9.8 secs

     End of band structure calculation

          k = 0.0000 0.0000 0.0000 ( 85147 PWs)   bands (ev):

   -21.2872 -12.9912  -9.5427  -9.5427

          k = 0.1250 0.0000 0.0000 ( 85302 PWs)   bands (ev):

   -21.2169 -13.2013  -9.2493  -9.2493

          k = 0.0556 0.0000 0.0000 ( 85206 PWs)   bands (ev):

   -21.2730 -13.0348  -9.4844  -9.4844

          k = 0.1806 0.0000 0.0000 ( 85450 PWs)   bands (ev):

   -21.1464 -13.4021  -8.9351  -8.9351

          k = 0.1111 0.0000 0.0000 ( 85278 PWs)   bands (ev):

   -21.2313 -13.1593  -9.3106  -9.3106

          k = 0.2361 0.0000 0.0000 ( 85454 PWs)   bands (ev):

   -21.0600 -13.6356  -8.5158  -8.5158

          k = 0.1667 0.0000 0.0000 ( 85398 PWs)   bands (ev):

   -21.1658 -13.3477  -9.0239  -9.0239

          k = 0.2917 0.0000 0.0000 ( 85562 PWs)   bands (ev):

   -20.9669 -13.8739  -8.0041  -8.0041

          k = 0.2222 0.0000 0.0000 ( 85494 PWs)   bands (ev):

   -21.0826 -13.5757  -8.6299  -8.6299

          k = 0.3472 0.0000 0.0000 ( 85582 PWs)   bands (ev):

   -20.8782 -14.0894  -7.4258  -7.4258

          k = 0.2778 0.0000 0.0000 ( 85522 PWs)   bands (ev):

   -20.9902 -13.8154  -8.1396  -8.1396

          k = 0.4028 0.0000 0.0000 ( 85662 PWs)   bands (ev):

   -20.8062 -14.2573  -6.8386  -6.8386

          k = 0.3333 0.0000 0.0000 ( 85578 PWs)   bands (ev):

   -20.8993 -14.0391  -7.5743  -7.5743

          k = 0.4583 0.0000 0.0000 ( 85722 PWs)   bands (ev):

   -20.7618 -14.3578  -6.3748  -6.3748

          k = 0.3889 0.0000 0.0000 ( 85614 PWs)   bands (ev):

   -20.8220 -14.2210  -6.9809  -6.9809

          k = 0.5139 0.0000 0.0000 ( 85694 PWs)   bands (ev):

   -20.7525 -14.3785  -6.2605  -6.2605

          k = 0.4444 0.0000 0.0000 ( 85642 PWs)   bands (ev):

   -20.7698 -14.3398  -6.4675  -6.4675

          k = 0.5694 0.0000 0.0000 ( 85630 PWs)   bands (ev):

   -20.7799 -14.3169  -6.5784  -6.5784

          k =-0.5000 0.0000 0.0000 ( 85766 PWs)   bands (ev):

   -20.7513 -14.3811  -6.2455  -6.2455

          k =-0.3750 0.0000 0.0000 ( 85602 PWs)   bands (ev):

   -20.8394 -14.1807  -7.1275  -7.1275

          k =-0.0556 0.0000 0.0000 ( 85206 PWs)   bands (ev):

   -21.2730 -13.0348  -9.4844  -9.4844

          k = 0.0694 0.0000 0.0000 ( 85262 PWs)   bands (ev):

   -21.2650 -13.0589  -9.4517  -9.4517

          k =-0.1111 0.0000 0.0000 ( 85278 PWs)   bands (ev):

   -21.2313 -13.1593  -9.3106  -9.3106

          k = 0.0139 0.0000 0.0000 ( 85155 PWs)   bands (ev):

   -21.2863 -12.9940  -9.5390  -9.5390

          k =-0.1667 0.0000 0.0000 ( 85398 PWs)   bands (ev):

   -21.1658 -13.3477  -9.0239  -9.0239

          k =-0.0417 0.0000 0.0000 ( 85191 PWs)   bands (ev):

   -21.2792 -13.0159  -9.5099  -9.5099

          k =-0.2222 0.0000 0.0000 ( 85494 PWs)   bands (ev):

   -21.0826 -13.5757  -8.6299  -8.6299

          k =-0.0972 0.0000 0.0000 ( 85262 PWs)   bands (ev):

   -21.2441 -13.1214  -9.3648  -9.3648

          k =-0.2778 0.0000 0.0000 ( 85522 PWs)   bands (ev):

   -20.9902 -13.8154  -8.1396  -8.1396

          k =-0.1528 0.0000 0.0000 ( 85430 PWs)   bands (ev):

   -21.1841 -13.2959  -9.1059  -9.1059

          k =-0.3333 0.0000 0.0000 ( 85578 PWs)   bands (ev):

   -20.8993 -14.0391  -7.5743  -7.5743

          k =-0.2083 0.0000 0.0000 ( 85550 PWs)   bands (ev):

   -21.1046 -13.5165  -8.7380  -8.7380

          k =-0.3889 0.0000 0.0000 ( 85614 PWs)   bands (ev):

   -20.8220 -14.2210  -6.9809  -6.9809

          k =-0.2639 0.0000 0.0000 ( 85494 PWs)   bands (ev):

   -21.0136 -13.7559  -8.2703  -8.2703

          k =-0.4444 0.0000 0.0000 ( 85642 PWs)   bands (ev):

   -20.7698 -14.3398  -6.4675  -6.4675

          k =-0.3194 0.0000 0.0000 ( 85590 PWs)   bands (ev):

   -20.9212 -13.9861  -7.7208  -7.7208

     highest occupied level (ev):    -6.2455

     Writing output data file ./_ph0/Chain2atoms.save/

                                                                                

     bravais-lattice index     =            8
     lattice parameter (alat)  =       4.9525  a.u.
     unit-cell volume          =    7074.2618 (a.u.)^3
     number of atoms/cell      =            2
     number of atomic types    =            2
     kinetic-energy cut-off    =      80.0000  Ry
     charge density cut-off    =     320.0000  Ry
     convergence threshold     =      1.0E-20
     beta                      =       0.7000
     number of iterations used =            4
     Exchange-correlation= PBE
                           (   1   4   3   4   0   0   0)


     celldm(1)=    4.95249  celldm(2)=    7.63142  celldm(3)=    7.63142
     celldm(4)=    0.00000  celldm(5)=    0.00000  celldm(6)=    0.00000

     crystal axes: (cart. coord. in units of alat)
               a(1) = (  1.0000  0.0000  0.0000 )  
               a(2) = (  0.0000  7.6314  0.0000 )  
               a(3) = (  0.0000  0.0000  7.6314 )  

     reciprocal axes: (cart. coord. in units 2 pi/alat)
               b(1) = (  1.0000  0.0000  0.0000 )  
               b(2) = (  0.0000  0.1310  0.0000 )  
               b(3) = (  0.0000  0.0000  0.1310 )  


     Atoms inside the unit cell: 

     Cartesian axes

     site n.  atom      mass           positions (alat units)
        1     B   10.8110   tau(    1) = (   -0.14112    0.00000    0.00000  )
        2     N   14.0067   tau(    2) = (    0.35878    0.00000    0.00000  )

     Computing dynamical matrix for 
                    q = (   0.1250000   0.0000000   0.0000000 )
 
      8 Sym.Ops. (no q -> -q+G )


     G cutoff =  198.8095  (  34172 G-vectors)     FFT grid: ( 30,216,216)
     number of k points=    36

     PseudoPot. # 1 for B  read from file:
     ../Pseudo/B.pbe-n-rrkjus_psl.1.0.0.UPF
     MD5 check sum: 63df43e07c319b5f28dc02596645f850
     Pseudo is Ultrasoft + core correction, Zval =  3.0
     Generated using "atomic" code by A. Dal Corso  v.5.1.2
     Using radial grid of 1059 points,  4 beta functions with: 
                l(1) =   0
                l(2) =   0
                l(3) =   1
                l(4) =   1
     Q(r) pseudized with 0 coefficients 


     PseudoPot. # 2 for N  read from file:
     ../Pseudo/N.pbe-rrkjus.UPF
     MD5 check sum: 0c3fbe5807a93f9ba59d5a7019aa238b
     Pseudo is Ultrasoft, Zval =  5.0
     Generated by new atomic code, or converted to UPF format
     Using radial grid of 1257 points,  4 beta functions with: 
                l(1) =   0
                l(2) =   0
                l(3) =   1
                l(4) =   1
     Q(r) pseudized with 0 coefficients 


     Mode symmetry, C_4v (4mm)  point group:


     Atomic displacements:
     There are    4 irreducible representations

     Representation     1      1 modes -  To be done

     Representation     2      1 modes -  To be done

     Representation     3      2 modes -  To be done

     Representation     4      2 modes -  To be done



     Alpha used in Ewald sum =   2.8000

     negative rho (up, down):  2.097E-03 0.000E+00
     PHONON       :   3m40.14s CPU   3m56.51s WALL



     Representation #   1 mode #   1

     Self-consistent Calculation

      iter #   1 total cpu time :   239.7 secs   av.it.:   6.2
      thresh= 1.000E-02 alpha_mix =  0.700 |ddv_scf|^2 =  1.402E-07

      iter #   2 total cpu time :   244.3 secs   av.it.:  11.0
      thresh= 3.745E-05 alpha_mix =  0.700 |ddv_scf|^2 =  1.406E-07

      iter #   3 total cpu time :   248.6 secs   av.it.:  10.5
      thresh= 3.750E-05 alpha_mix =  0.700 |ddv_scf|^2 =  5.717E-10

      iter #   4 total cpu time :   253.3 secs   av.it.:  11.6
      thresh= 2.391E-06 alpha_mix =  0.700 |ddv_scf|^2 =  3.370E-10

      iter #   5 total cpu time :   257.8 secs   av.it.:  11.2
      thresh= 1.836E-06 alpha_mix =  0.700 |ddv_scf|^2 =  4.268E-12

      iter #   6 total cpu time :   262.3 secs   av.it.:  11.3
      thresh= 2.066E-07 alpha_mix =  0.700 |ddv_scf|^2 =  2.948E-14

      iter #   7 total cpu time :   266.6 secs   av.it.:  10.3
      thresh= 1.717E-08 alpha_mix =  0.700 |ddv_scf|^2 =  3.156E-17

      iter #   8 total cpu time :   271.0 secs   av.it.:  10.7
      thresh= 5.618E-10 alpha_mix =  0.700 |ddv_scf|^2 =  2.116E-18

      iter #   9 total cpu time :   275.5 secs   av.it.:  11.1
      thresh= 1.455E-10 alpha_mix =  0.700 |ddv_scf|^2 =  1.366E-20

      iter #  10 total cpu time :   280.1 secs   av.it.:  11.7
      thresh= 1.169E-11 alpha_mix =  0.700 |ddv_scf|^2 =  4.803E-21

     End of self-consistent calculation

     Convergence has been achieved 


     Representation #   2 mode #   2

     Self-consistent Calculation

      iter #   1 total cpu time :   283.4 secs   av.it.:   5.8
      thresh= 1.000E-02 alpha_mix =  0.700 |ddv_scf|^2 =  1.182E-07

      iter #   2 total cpu time :   287.6 secs   av.it.:  10.5
      thresh= 3.439E-05 alpha_mix =  0.700 |ddv_scf|^2 =  1.141E-08

      iter #   3 total cpu time :   292.1 secs   av.it.:  11.4
      thresh= 1.068E-05 alpha_mix =  0.700 |ddv_scf|^2 =  5.028E-09

      iter #   4 total cpu time :   296.6 secs   av.it.:  11.3
      thresh= 7.091E-06 alpha_mix =  0.700 |ddv_scf|^2 =  1.329E-10

      iter #   5 total cpu time :   301.2 secs   av.it.:  11.5
      thresh= 1.153E-06 alpha_mix =  0.700 |ddv_scf|^2 =  8.863E-12

      iter #   6 total cpu time :   305.6 secs   av.it.:  11.3
      thresh= 2.977E-07 alpha_mix =  0.700 |ddv_scf|^2 =  1.969E-15

      iter #   7 total cpu time :   310.1 secs   av.it.:  11.4
      thresh= 4.437E-09 alpha_mix =  0.700 |ddv_scf|^2 =  2.921E-16

      iter #   8 total cpu time :   314.4 secs   av.it.:  10.3
      thresh= 1.709E-09 alpha_mix =  0.700 |ddv_scf|^2 =  8.019E-19

      iter #   9 total cpu time :   318.8 secs   av.it.:  11.4
      thresh= 8.955E-11 alpha_mix =  0.700 |ddv_scf|^2 =  1.318E-20

      iter #  10 total cpu time :   323.4 secs   av.it.:  10.9
      thresh= 1.148E-11 alpha_mix =  0.700 |ddv_scf|^2 =  2.262E-22

     End of self-consistent calculation

     Convergence has been achieved 


     Representation #   3 modes #   3   4

     Self-consistent Calculation

      iter #   1 total cpu time :   329.4 secs   av.it.:   5.8
      thresh= 1.000E-02 alpha_mix =  0.700 |ddv_scf|^2 =  8.714E-09

      iter #   2 total cpu time :   337.9 secs   av.it.:  11.0
      thresh= 9.335E-06 alpha_mix =  0.700 |ddv_scf|^2 =  7.748E-10

      iter #   3 total cpu time :   346.3 secs   av.it.:  11.0
      thresh= 2.783E-06 alpha_mix =  0.700 |ddv_scf|^2 =  2.004E-11

      iter #   4 total cpu time :   355.1 secs   av.it.:  11.7
      thresh= 4.477E-07 alpha_mix =  0.700 |ddv_scf|^2 =  7.868E-15

      iter #   5 total cpu time :   364.1 secs   av.it.:  11.8
      thresh= 8.870E-09 alpha_mix =  0.700 |ddv_scf|^2 =  1.611E-16

      iter #   6 total cpu time :   372.8 secs   av.it.:  11.4
      thresh= 1.269E-09 alpha_mix =  0.700 |ddv_scf|^2 =  3.072E-19

      iter #   7 total cpu time :   381.9 secs   av.it.:  11.8
      thresh= 5.543E-11 alpha_mix =  0.700 |ddv_scf|^2 =  7.501E-21

     End of self-consistent calculation

     Convergence has been achieved 


     Representation #   4 modes #   5   6

     Self-consistent Calculation

      iter #   1 total cpu time :   388.1 secs   av.it.:   6.0
      thresh= 1.000E-02 alpha_mix =  0.700 |ddv_scf|^2 =  6.743E-09

      iter #   2 total cpu time :   397.2 secs   av.it.:  11.9
      thresh= 8.212E-06 alpha_mix =  0.700 |ddv_scf|^2 =  5.234E-10

      iter #   3 total cpu time :   406.2 secs   av.it.:  11.7
      thresh= 2.288E-06 alpha_mix =  0.700 |ddv_scf|^2 =  3.230E-12

      iter #   4 total cpu time :   414.8 secs   av.it.:  11.2
      thresh= 1.797E-07 alpha_mix =  0.700 |ddv_scf|^2 =  4.019E-14

      iter #   5 total cpu time :   423.7 secs   av.it.:  11.7
      thresh= 2.005E-08 alpha_mix =  0.700 |ddv_scf|^2 =  5.310E-17

      iter #   6 total cpu time :   432.4 secs   av.it.:  11.3
      thresh= 7.287E-10 alpha_mix =  0.700 |ddv_scf|^2 =  1.435E-18

      iter #   7 total cpu time :   441.3 secs   av.it.:  11.8
      thresh= 1.198E-10 alpha_mix =  0.700 |ddv_scf|^2 =  2.614E-21

     End of self-consistent calculation

     Convergence has been achieved 
 
     Number of q in the star =    1
     List of q in the star:
          1   0.125000000   0.000000000   0.000000000
     In addition there is the -q list: 
          1  -0.125000000   0.000000000   0.000000000

     Diagonalizing the dynamical matrix

     q = (    0.125000000   0.000000000   0.000000000 ) 

 **************************************************************************
     freq (    1) =      -1.291323 [THz] =     -43.073884 [cm-1]
     freq (    2) =      -1.291323 [THz] =     -43.073884 [cm-1]
     freq (    3) =      14.562481 [THz] =     485.752067 [cm-1]
     freq (    4) =      14.562481 [THz] =     485.752067 [cm-1]
     freq (    5) =      14.808535 [THz] =     493.959555 [cm-1]
     freq (    6) =      63.561317 [THz] =    2120.177327 [cm-1]
 **************************************************************************

     Mode symmetry, C_4v (4mm)  point group:

     freq (   1-   2) =        -43.1  [cm-1]   --> E    G_5 D_5       
     freq (   3-   4) =        485.8  [cm-1]   --> E    G_5 D_5       
     freq (   5-   5) =        494.0  [cm-1]   --> A_1  G_1 D_1       
     freq (   6-   6) =       2120.2  [cm-1]   --> A_1  G_1 D_1       

     Calculation of q =    0.2500000   0.0000000   0.0000000
 
     Parallelization info
     --------------------
     sticks:   dense  smooth     PW     G-vecs:    dense   smooth      PW
     Min         238     238     71                34170    34170    5669
     Max         239     239     72                34183    34183    5676
     Sum        4771    4771   1437               683529   683529  113447
 


     bravais-lattice index     =            8
     lattice parameter (alat)  =       4.9525  a.u.
     unit-cell volume          =    7074.2618 (a.u.)^3
     number of atoms/cell      =            2
     number of atomic types    =            2
     number of electrons       =         8.00
     number of Kohn-Sham states=            4
     kinetic-energy cutoff     =      80.0000  Ry
     charge density cutoff     =     320.0000  Ry
     Exchange-correlation= PBE
                           (   1   4   3   4   0   0   0)

     celldm(1)=   4.952488  celldm(2)=   7.631422  celldm(3)=   7.631422
     celldm(4)=   0.000000  celldm(5)=   0.000000  celldm(6)=   0.000000

     crystal axes: (cart. coord. in units of alat)
               a(1) = (   1.000000   0.000000   0.000000 )  
               a(2) = (   0.000000   7.631422   0.000000 )  
               a(3) = (   0.000000   0.000000   7.631422 )  

     reciprocal axes: (cart. coord. in units 2 pi/alat)
               b(1) = (  1.000000  0.000000  0.000000 )  
               b(2) = (  0.000000  0.131037  0.000000 )  
               b(3) = (  0.000000  0.000000  0.131037 )  


     PseudoPot. # 1 for B  read from file:
     ../Pseudo/B.pbe-n-rrkjus_psl.1.0.0.UPF
     MD5 check sum: 63df43e07c319b5f28dc02596645f850
     Pseudo is Ultrasoft + core correction, Zval =  3.0
     Generated using "atomic" code by A. Dal Corso  v.5.1.2
     Using radial grid of 1059 points,  4 beta functions with: 
                l(1) =   0
                l(2) =   0
                l(3) =   1
                l(4) =   1
     Q(r) pseudized with 0 coefficients 


     PseudoPot. # 2 for N  read from file:
     ../Pseudo/N.pbe-rrkjus.UPF
     MD5 check sum: 0c3fbe5807a93f9ba59d5a7019aa238b
     Pseudo is Ultrasoft, Zval =  5.0
     Generated by new atomic code, or converted to UPF format
     Using radial grid of 1257 points,  4 beta functions with: 
                l(1) =   0
                l(2) =   0
                l(3) =   1
                l(4) =   1
     Q(r) pseudized with 0 coefficients 


     atomic species   valence    mass     pseudopotential
        B              3.00    10.81100     B ( 1.00)
        N              5.00    14.00670     N ( 1.00)

      8 Sym. Ops. (no inversion) found



   Cartesian axes

     site n.     atom                  positions (alat units)
         1           B   tau(   1) = (  -0.1411180   0.0000000   0.0000000  )
         2           N   tau(   2) = (   0.3587818   0.0000000   0.0000000  )

     number of k points=    36
                       cart. coord. in units 2pi/alat
        k(    1) = (   0.0000000   0.0000000   0.0000000), wk =   0.1111111
        k(    2) = (   0.2500000   0.0000000   0.0000000), wk =   0.0000000
        k(    3) = (   0.0555556   0.0000000   0.0000000), wk =   0.1111111
        k(    4) = (   0.3055556   0.0000000   0.0000000), wk =   0.0000000
        k(    5) = (   0.1111111   0.0000000   0.0000000), wk =   0.1111111
        k(    6) = (   0.3611111   0.0000000   0.0000000), wk =   0.0000000
        k(    7) = (   0.1666667   0.0000000   0.0000000), wk =   0.1111111
        k(    8) = (   0.4166667   0.0000000   0.0000000), wk =   0.0000000
        k(    9) = (   0.2222222   0.0000000   0.0000000), wk =   0.1111111
        k(   10) = (   0.4722222   0.0000000   0.0000000), wk =   0.0000000
        k(   11) = (   0.2777778   0.0000000   0.0000000), wk =   0.1111111
        k(   12) = (   0.5277778   0.0000000   0.0000000), wk =   0.0000000
        k(   13) = (   0.3333333   0.0000000   0.0000000), wk =   0.1111111
        k(   14) = (   0.5833333   0.0000000   0.0000000), wk =   0.0000000
        k(   15) = (   0.3888889   0.0000000   0.0000000), wk =   0.1111111
        k(   16) = (   0.6388889   0.0000000   0.0000000), wk =   0.0000000
        k(   17) = (   0.4444444   0.0000000   0.0000000), wk =   0.1111111
        k(   18) = (   0.6944444   0.0000000   0.0000000), wk =   0.0000000
        k(   19) = (  -0.5000000   0.0000000   0.0000000), wk =   0.1111111
        k(   20) = (  -0.2500000   0.0000000   0.0000000), wk =   0.0000000
        k(   21) = (  -0.0555556   0.0000000   0.0000000), wk =   0.1111111
        k(   22) = (   0.1944444   0.0000000   0.0000000), wk =   0.0000000
        k(   23) = (  -0.1111111   0.0000000   0.0000000), wk =   0.1111111
        k(   24) = (   0.1388889   0.0000000   0.0000000), wk =   0.0000000
        k(   25) = (  -0.1666667   0.0000000   0.0000000), wk =   0.1111111
        k(   26) = (   0.0833333   0.0000000   0.0000000), wk =   0.0000000
        k(   27) = (  -0.2222222   0.0000000   0.0000000), wk =   0.1111111
        k(   28) = (   0.0277778   0.0000000   0.0000000), wk =   0.0000000
        k(   29) = (  -0.2777778   0.0000000   0.0000000), wk =   0.1111111
        k(   30) = (  -0.0277778   0.0000000   0.0000000), wk =   0.0000000
        k(   31) = (  -0.3333333   0.0000000   0.0000000), wk =   0.1111111
        k(   32) = (  -0.0833333   0.0000000   0.0000000), wk =   0.0000000
        k(   33) = (  -0.3888889   0.0000000   0.0000000), wk =   0.1111111
        k(   34) = (  -0.1388889   0.0000000   0.0000000), wk =   0.0000000
        k(   35) = (  -0.4444444   0.0000000   0.0000000), wk =   0.1111111
        k(   36) = (  -0.1944444   0.0000000   0.0000000), wk =   0.0000000

     Dense  grid:   683529 G-vectors     FFT dimensions: (  30, 216, 216)

     Estimated max dynamical RAM per process >      36.02 MB

     Estimated total dynamical RAM >     720.36 MB

     The potential is recalculated from file :
     ./_ph0/Chain2atoms.save/charge-density


     negative rho (up, down):  2.097E-03 0.000E+00
     Starting wfcs are    8 atomic wfcs

     Band Structure Calculation
     Davidson diagonalization with overlap

     ethr =  1.25E-10,  avg # of iterations = 13.1

     total cpu time spent up to now is       19.8 secs

     End of band structure calculation

          k = 0.0000 0.0000 0.0000 ( 85147 PWs)   bands (ev):

   -21.2872 -12.9912  -9.5427  -9.5427

          k = 0.2500 0.0000 0.0000 ( 85442 PWs)   bands (ev):

   -21.0369 -13.6958  -8.3958  -8.3958

          k = 0.0556 0.0000 0.0000 ( 85206 PWs)   bands (ev):

   -21.2730 -13.0348  -9.4844  -9.4844

          k = 0.3056 0.0000 0.0000 ( 85562 PWs)   bands (ev):

   -20.9438 -13.9309  -7.8643  -7.8643

          k = 0.1111 0.0000 0.0000 ( 85278 PWs)   bands (ev):

   -21.2313 -13.1593  -9.3106  -9.3106

          k = 0.3611 0.0000 0.0000 ( 85610 PWs)   bands (ev):

   -20.8582 -14.1367  -7.2764  -7.2764

          k = 0.1667 0.0000 0.0000 ( 85398 PWs)   bands (ev):

   -21.1658 -13.3477  -9.0239  -9.0239

          k = 0.4167 0.0000 0.0000 ( 85678 PWs)   bands (ev):

   -20.7921 -14.2894  -6.7034  -6.7034

          k = 0.2222 0.0000 0.0000 ( 85494 PWs)   bands (ev):

   -21.0826 -13.5757  -8.6299  -8.6299

          k = 0.4722 0.0000 0.0000 ( 85706 PWs)   bands (ev):

   -20.7560 -14.3707  -6.3045  -6.3045

          k = 0.2778 0.0000 0.0000 ( 85522 PWs)   bands (ev):

   -20.9902 -13.8154  -8.1396  -8.1396

          k = 0.5278 0.0000 0.0000 ( 85706 PWs)   bands (ev):

   -20.7560 -14.3707  -6.3045  -6.3045

          k = 0.3333 0.0000 0.0000 ( 85578 PWs)   bands (ev):

   -20.8993 -14.0391  -7.5743  -7.5743

          k = 0.5833 0.0000 0.0000 ( 85678 PWs)   bands (ev):

   -20.7921 -14.2894  -6.7034  -6.7034

          k = 0.3889 0.0000 0.0000 ( 85614 PWs)   bands (ev):

   -20.8220 -14.2210  -6.9809  -6.9809

          k = 0.6389 0.0000 0.0000 ( 85610 PWs)   bands (ev):

   -20.8582 -14.1367  -7.2764  -7.2764

          k = 0.4444 0.0000 0.0000 ( 85642 PWs)   bands (ev):

   -20.7698 -14.3398  -6.4675  -6.4675

          k = 0.6944 0.0000 0.0000 ( 85562 PWs)   bands (ev):

   -20.9438 -13.9309  -7.8643  -7.8643

          k =-0.5000 0.0000 0.0000 ( 85766 PWs)   bands (ev):

   -20.7513 -14.3811  -6.2455  -6.2455

          k =-0.2500 0.0000 0.0000 ( 85442 PWs)   bands (ev):

   -21.0369 -13.6958  -8.3958  -8.3958

          k =-0.0556 0.0000 0.0000 ( 85206 PWs)   bands (ev):

   -21.2730 -13.0348  -9.4844  -9.4844

          k = 0.1944 0.0000 0.0000 ( 85482 PWs)   bands (ev):

   -21.1259 -13.4585  -8.8398  -8.8398

          k =-0.1111 0.0000 0.0000 ( 85278 PWs)   bands (ev):

   -21.2313 -13.1593  -9.3106  -9.3106

          k = 0.1389 0.0000 0.0000 ( 85390 PWs)   bands (ev):

   -21.2012 -13.2470  -9.1811  -9.1811

          k =-0.1667 0.0000 0.0000 ( 85398 PWs)   bands (ev):

   -21.1658 -13.3477  -9.0239  -9.0239

          k = 0.0833 0.0000 0.0000 ( 85262 PWs)   bands (ev):

   -21.2554 -13.0878  -9.4118  -9.4118

          k =-0.2222 0.0000 0.0000 ( 85494 PWs)   bands (ev):

   -21.0826 -13.5757  -8.6299  -8.6299

          k = 0.0278 0.0000 0.0000 ( 85211 PWs)   bands (ev):

   -21.2837 -13.0022  -9.5281  -9.5281

          k =-0.2778 0.0000 0.0000 ( 85522 PWs)   bands (ev):

   -20.9902 -13.8154  -8.1396  -8.1396

          k =-0.0278 0.0000 0.0000 ( 85211 PWs)   bands (ev):

   -21.2837 -13.0022  -9.5281  -9.5281

          k =-0.3333 0.0000 0.0000 ( 85578 PWs)   bands (ev):

   -20.8993 -14.0391  -7.5743  -7.5743

          k =-0.0833 0.0000 0.0000 ( 85262 PWs)   bands (ev):

   -21.2554 -13.0878  -9.4118  -9.4118

          k =-0.3889 0.0000 0.0000 ( 85614 PWs)   bands (ev):

   -20.8220 -14.2210  -6.9809  -6.9809

          k =-0.1389 0.0000 0.0000 ( 85390 PWs)   bands (ev):

   -21.2012 -13.2470  -9.1811  -9.1811

          k =-0.4444 0.0000 0.0000 ( 85642 PWs)   bands (ev):

   -20.7698 -14.3398  -6.4675  -6.4675

          k =-0.1944 0.0000 0.0000 ( 85482 PWs)   bands (ev):

   -21.1259 -13.4585  -8.8398  -8.8398

     highest occupied level (ev):    -6.2455

     Writing output data file ./_ph0/Chain2atoms.save/

                                                                                

     bravais-lattice index     =            8
     lattice parameter (alat)  =       4.9525  a.u.
     unit-cell volume          =    7074.2618 (a.u.)^3
     number of atoms/cell      =            2
     number of atomic types    =            2
     kinetic-energy cut-off    =      80.0000  Ry
     charge density cut-off    =     320.0000  Ry
     convergence threshold     =      1.0E-20
     beta                      =       0.7000
     number of iterations used =            4
     Exchange-correlation= PBE
                           (   1   4   3   4   0   0   0)


     celldm(1)=    4.95249  celldm(2)=    7.63142  celldm(3)=    7.63142
     celldm(4)=    0.00000  celldm(5)=    0.00000  celldm(6)=    0.00000

     crystal axes: (cart. coord. in units of alat)
               a(1) = (  1.0000  0.0000  0.0000 )  
               a(2) = (  0.0000  7.6314  0.0000 )  
               a(3) = (  0.0000  0.0000  7.6314 )  

     reciprocal axes: (cart. coord. in units 2 pi/alat)
               b(1) = (  1.0000  0.0000  0.0000 )  
               b(2) = (  0.0000  0.1310  0.0000 )  
               b(3) = (  0.0000  0.0000  0.1310 )  


     Atoms inside the unit cell: 

     Cartesian axes

     site n.  atom      mass           positions (alat units)
        1     B   10.8110   tau(    1) = (   -0.14112    0.00000    0.00000  )
        2     N   14.0067   tau(    2) = (    0.35878    0.00000    0.00000  )

     Computing dynamical matrix for 
                    q = (   0.2500000   0.0000000   0.0000000 )
 
      8 Sym.Ops. (no q -> -q+G )


     G cutoff =  198.8095  (  34172 G-vectors)     FFT grid: ( 30,216,216)
     number of k points=    36

     PseudoPot. # 1 for B  read from file:
     ../Pseudo/B.pbe-n-rrkjus_psl.1.0.0.UPF
     MD5 check sum: 63df43e07c319b5f28dc02596645f850
     Pseudo is Ultrasoft + core correction, Zval =  3.0
     Generated using "atomic" code by A. Dal Corso  v.5.1.2
     Using radial grid of 1059 points,  4 beta functions with: 
                l(1) =   0
                l(2) =   0
                l(3) =   1
                l(4) =   1
     Q(r) pseudized with 0 coefficients 


     PseudoPot. # 2 for N  read from file:
     ../Pseudo/N.pbe-rrkjus.UPF
     MD5 check sum: 0c3fbe5807a93f9ba59d5a7019aa238b
     Pseudo is Ultrasoft, Zval =  5.0
     Generated by new atomic code, or converted to UPF format
     Using radial grid of 1257 points,  4 beta functions with: 
                l(1) =   0
                l(2) =   0
                l(3) =   1
                l(4) =   1
     Q(r) pseudized with 0 coefficients 


     Mode symmetry, C_4v (4mm)  point group:


     Atomic displacements:
     There are    4 irreducible representations

     Representation     1      1 modes -  To be done

     Representation     2      1 modes -  To be done

     Representation     3      2 modes -  To be done

     Representation     4      2 modes -  To be done



     Alpha used in Ewald sum =   2.8000

     negative rho (up, down):  2.097E-03 0.000E+00
     PHONON       :   7m 4.31s CPU   7m35.28s WALL



     Representation #   1 mode #   1

     Self-consistent Calculation

      iter #   1 total cpu time :   458.6 secs   av.it.:   6.4
      thresh= 1.000E-02 alpha_mix =  0.700 |ddv_scf|^2 =  1.119E-07

      iter #   2 total cpu time :   463.3 secs   av.it.:  11.7
      thresh= 3.346E-05 alpha_mix =  0.700 |ddv_scf|^2 =  2.134E-07

      iter #   3 total cpu time :   467.7 secs   av.it.:  10.9
      thresh= 4.620E-05 alpha_mix =  0.700 |ddv_scf|^2 =  7.320E-10

      iter #   4 total cpu time :   472.4 secs   av.it.:  12.0
      thresh= 2.706E-06 alpha_mix =  0.700 |ddv_scf|^2 =  2.920E-10

      iter #   5 total cpu time :   476.8 secs   av.it.:  11.2
      thresh= 1.709E-06 alpha_mix =  0.700 |ddv_scf|^2 =  6.650E-12

      iter #   6 total cpu time :   481.4 secs   av.it.:  11.4
      thresh= 2.579E-07 alpha_mix =  0.700 |ddv_scf|^2 =  5.151E-15

      iter #   7 total cpu time :   485.9 secs   av.it.:  11.3
      thresh= 7.177E-09 alpha_mix =  0.700 |ddv_scf|^2 =  3.613E-17

      iter #   8 total cpu time :   490.4 secs   av.it.:  11.4
      thresh= 6.011E-10 alpha_mix =  0.700 |ddv_scf|^2 =  7.150E-19

      iter #   9 total cpu time :   494.9 secs   av.it.:  11.5
      thresh= 8.456E-11 alpha_mix =  0.700 |ddv_scf|^2 =  6.271E-20

      iter #  10 total cpu time :   499.6 secs   av.it.:  12.0
      thresh= 2.504E-11 alpha_mix =  0.700 |ddv_scf|^2 =  1.790E-20

      iter #  11 total cpu time :   504.2 secs   av.it.:  11.3
      thresh= 1.338E-11 alpha_mix =  0.700 |ddv_scf|^2 =  3.614E-23

     End of self-consistent calculation

     Convergence has been achieved 


     Representation #   2 mode #   2

     Self-consistent Calculation

      iter #   1 total cpu time :   507.5 secs   av.it.:   6.0
      thresh= 1.000E-02 alpha_mix =  0.700 |ddv_scf|^2 =  1.240E-07

      iter #   2 total cpu time :   511.9 secs   av.it.:  10.9
      thresh= 3.521E-05 alpha_mix =  0.700 |ddv_scf|^2 =  3.072E-08

      iter #   3 total cpu time :   516.5 secs   av.it.:  11.7
      thresh= 1.753E-05 alpha_mix =  0.700 |ddv_scf|^2 =  4.340E-08

      iter #   4 total cpu time :   520.9 secs   av.it.:  11.0
      thresh= 2.083E-05 alpha_mix =  0.700 |ddv_scf|^2 =  1.746E-10

      iter #   5 total cpu time :   525.6 secs   av.it.:  11.8
      thresh= 1.321E-06 alpha_mix =  0.700 |ddv_scf|^2 =  3.379E-12

      iter #   6 total cpu time :   530.1 secs   av.it.:  11.4
      thresh= 1.838E-07 alpha_mix =  0.700 |ddv_scf|^2 =  1.998E-15

      iter #   7 total cpu time :   534.7 secs   av.it.:  11.4
      thresh= 4.469E-09 alpha_mix =  0.700 |ddv_scf|^2 =  4.739E-16

      iter #   8 total cpu time :   539.2 secs   av.it.:  11.3
      thresh= 2.177E-09 alpha_mix =  0.700 |ddv_scf|^2 =  2.297E-19

      iter #   9 total cpu time :   543.9 secs   av.it.:  11.9
      thresh= 4.793E-11 alpha_mix =  0.700 |ddv_scf|^2 =  1.069E-20

      iter #  10 total cpu time :   548.4 secs   av.it.:  11.2
      thresh= 1.034E-11 alpha_mix =  0.700 |ddv_scf|^2 =  4.269E-21

     End of self-consistent calculation

     Convergence has been achieved 


     Representation #   3 modes #   3   4

     Self-consistent Calculation

      iter #   1 total cpu time :   554.4 secs   av.it.:   5.5
      thresh= 1.000E-02 alpha_mix =  0.700 |ddv_scf|^2 =  8.530E-09

      iter #   2 total cpu time :   562.8 secs   av.it.:  10.6
      thresh= 9.236E-06 alpha_mix =  0.700 |ddv_scf|^2 =  7.525E-10

      iter #   3 total cpu time :   571.1 secs   av.it.:  10.4
      thresh= 2.743E-06 alpha_mix =  0.700 |ddv_scf|^2 =  1.754E-12

      iter #   4 total cpu time :   580.4 secs   av.it.:  12.2
      thresh= 1.324E-07 alpha_mix =  0.700 |ddv_scf|^2 =  4.570E-15

      iter #   5 total cpu time :   589.5 secs   av.it.:  11.9
      thresh= 6.760E-09 alpha_mix =  0.700 |ddv_scf|^2 =  1.146E-16

      iter #   6 total cpu time :   598.4 secs   av.it.:  11.4
      thresh= 1.071E-09 alpha_mix =  0.700 |ddv_scf|^2 =  1.048E-19

      iter #   7 total cpu time :   607.5 secs   av.it.:  11.8
      thresh= 3.238E-11 alpha_mix =  0.700 |ddv_scf|^2 =  5.978E-21

     End of self-consistent calculation

     Convergence has been achieved 


     Representation #   4 modes #   5   6

     Self-consistent Calculation

      iter #   1 total cpu time :   613.7 secs   av.it.:   6.0
      thresh= 1.000E-02 alpha_mix =  0.700 |ddv_scf|^2 =  3.034E-09

      iter #   2 total cpu time :   623.1 secs   av.it.:  12.3
      thresh= 5.508E-06 alpha_mix =  0.700 |ddv_scf|^2 =  9.601E-11

      iter #   3 total cpu time :   632.3 secs   av.it.:  12.1
      thresh= 9.798E-07 alpha_mix =  0.700 |ddv_scf|^2 =  1.910E-12

      iter #   4 total cpu time :   640.9 secs   av.it.:  10.9
      thresh= 1.382E-07 alpha_mix =  0.700 |ddv_scf|^2 =  5.320E-15

      iter #   5 total cpu time :   650.0 secs   av.it.:  12.0
      thresh= 7.294E-09 alpha_mix =  0.700 |ddv_scf|^2 =  2.804E-17

      iter #   6 total cpu time :   659.1 secs   av.it.:  11.5
      thresh= 5.295E-10 alpha_mix =  0.700 |ddv_scf|^2 =  3.765E-19

      iter #   7 total cpu time :   668.3 secs   av.it.:  11.9
      thresh= 6.136E-11 alpha_mix =  0.700 |ddv_scf|^2 =  4.075E-21

     End of self-consistent calculation

     Convergence has been achieved 
 
     Number of q in the star =    1
     List of q in the star:
          1   0.250000000   0.000000000   0.000000000
     In addition there is the -q list: 
          1  -0.250000000   0.000000000   0.000000000

     Diagonalizing the dynamical matrix

     q = (    0.250000000   0.000000000   0.000000000 ) 

 **************************************************************************
     freq (    1) =       0.251690 [THz] =       8.395467 [cm-1]
     freq (    2) =       0.251690 [THz] =       8.395467 [cm-1]
     freq (    3) =      14.284644 [THz] =     476.484450 [cm-1]
     freq (    4) =      14.284644 [THz] =     476.484450 [cm-1]
     freq (    5) =      27.687074 [THz] =     923.541383 [cm-1]
     freq (    6) =      63.142245 [THz] =    2106.198574 [cm-1]
 **************************************************************************

     Mode symmetry, C_4v (4mm)  point group:

     freq (   1-   2) =          8.4  [cm-1]   --> E    G_5 D_5       
     freq (   3-   4) =        476.5  [cm-1]   --> E    G_5 D_5       
     freq (   5-   5) =        923.5  [cm-1]   --> A_1  G_1 D_1       
     freq (   6-   6) =       2106.2  [cm-1]   --> A_1  G_1 D_1       

     Calculation of q =    0.3750000   0.0000000   0.0000000
 
     Parallelization info
     --------------------
     sticks:   dense  smooth     PW     G-vecs:    dense   smooth      PW
     Min         238     238     73                34170    34170    5935
     Max         239     239     74                34183    34183    5942
     Sum        4771    4771   1471               683529   683529  118751
 


     bravais-lattice index     =            8
     lattice parameter (alat)  =       4.9525  a.u.
     unit-cell volume          =    7074.2618 (a.u.)^3
     number of atoms/cell      =            2
     number of atomic types    =            2
     number of electrons       =         8.00
     number of Kohn-Sham states=            4
     kinetic-energy cutoff     =      80.0000  Ry
     charge density cutoff     =     320.0000  Ry
     Exchange-correlation= PBE
                           (   1   4   3   4   0   0   0)

     celldm(1)=   4.952488  celldm(2)=   7.631422  celldm(3)=   7.631422
     celldm(4)=   0.000000  celldm(5)=   0.000000  celldm(6)=   0.000000

     crystal axes: (cart. coord. in units of alat)
               a(1) = (   1.000000   0.000000   0.000000 )  
               a(2) = (   0.000000   7.631422   0.000000 )  
               a(3) = (   0.000000   0.000000   7.631422 )  

     reciprocal axes: (cart. coord. in units 2 pi/alat)
               b(1) = (  1.000000  0.000000  0.000000 )  
               b(2) = (  0.000000  0.131037  0.000000 )  
               b(3) = (  0.000000  0.000000  0.131037 )  


     PseudoPot. # 1 for B  read from file:
     ../Pseudo/B.pbe-n-rrkjus_psl.1.0.0.UPF
     MD5 check sum: 63df43e07c319b5f28dc02596645f850
     Pseudo is Ultrasoft + core correction, Zval =  3.0
     Generated using "atomic" code by A. Dal Corso  v.5.1.2
     Using radial grid of 1059 points,  4 beta functions with: 
                l(1) =   0
                l(2) =   0
                l(3) =   1
                l(4) =   1
     Q(r) pseudized with 0 coefficients 


     PseudoPot. # 2 for N  read from file:
     ../Pseudo/N.pbe-rrkjus.UPF
     MD5 check sum: 0c3fbe5807a93f9ba59d5a7019aa238b
     Pseudo is Ultrasoft, Zval =  5.0
     Generated by new atomic code, or converted to UPF format
     Using radial grid of 1257 points,  4 beta functions with: 
                l(1) =   0
                l(2) =   0
                l(3) =   1
                l(4) =   1
     Q(r) pseudized with 0 coefficients 


     atomic species   valence    mass     pseudopotential
        B              3.00    10.81100     B ( 1.00)
        N              5.00    14.00670     N ( 1.00)

      8 Sym. Ops. (no inversion) found



   Cartesian axes

     site n.     atom                  positions (alat units)
         1           B   tau(   1) = (  -0.1411180   0.0000000   0.0000000  )
         2           N   tau(   2) = (   0.3587818   0.0000000   0.0000000  )

     number of k points=    36
                       cart. coord. in units 2pi/alat
        k(    1) = (   0.0000000   0.0000000   0.0000000), wk =   0.1111111
        k(    2) = (   0.3750000   0.0000000   0.0000000), wk =   0.0000000
        k(    3) = (   0.0555556   0.0000000   0.0000000), wk =   0.1111111
        k(    4) = (   0.4305556   0.0000000   0.0000000), wk =   0.0000000
        k(    5) = (   0.1111111   0.0000000   0.0000000), wk =   0.1111111
        k(    6) = (   0.4861111   0.0000000   0.0000000), wk =   0.0000000
        k(    7) = (   0.1666667   0.0000000   0.0000000), wk =   0.1111111
        k(    8) = (   0.5416667   0.0000000   0.0000000), wk =   0.0000000
        k(    9) = (   0.2222222   0.0000000   0.0000000), wk =   0.1111111
        k(   10) = (   0.5972222   0.0000000   0.0000000), wk =   0.0000000
        k(   11) = (   0.2777778   0.0000000   0.0000000), wk =   0.1111111
        k(   12) = (   0.6527778   0.0000000   0.0000000), wk =   0.0000000
        k(   13) = (   0.3333333   0.0000000   0.0000000), wk =   0.1111111
        k(   14) = (   0.7083333   0.0000000   0.0000000), wk =   0.0000000
        k(   15) = (   0.3888889   0.0000000   0.0000000), wk =   0.1111111
        k(   16) = (   0.7638889   0.0000000   0.0000000), wk =   0.0000000
        k(   17) = (   0.4444444   0.0000000   0.0000000), wk =   0.1111111
        k(   18) = (   0.8194444   0.0000000   0.0000000), wk =   0.0000000
        k(   19) = (  -0.5000000   0.0000000   0.0000000), wk =   0.1111111
        k(   20) = (  -0.1250000   0.0000000   0.0000000), wk =   0.0000000
        k(   21) = (  -0.0555556   0.0000000   0.0000000), wk =   0.1111111
        k(   22) = (   0.3194444   0.0000000   0.0000000), wk =   0.0000000
        k(   23) = (  -0.1111111   0.0000000   0.0000000), wk =   0.1111111
        k(   24) = (   0.2638889   0.0000000   0.0000000), wk =   0.0000000
        k(   25) = (  -0.1666667   0.0000000   0.0000000), wk =   0.1111111
        k(   26) = (   0.2083333   0.0000000   0.0000000), wk =   0.0000000
        k(   27) = (  -0.2222222   0.0000000   0.0000000), wk =   0.1111111
        k(   28) = (   0.1527778   0.0000000   0.0000000), wk =   0.0000000
        k(   29) = (  -0.2777778   0.0000000   0.0000000), wk =   0.1111111
        k(   30) = (   0.0972222   0.0000000   0.0000000), wk =   0.0000000
        k(   31) = (  -0.3333333   0.0000000   0.0000000), wk =   0.1111111
        k(   32) = (   0.0416667   0.0000000   0.0000000), wk =   0.0000000
        k(   33) = (  -0.3888889   0.0000000   0.0000000), wk =   0.1111111
        k(   34) = (  -0.0138889   0.0000000   0.0000000), wk =   0.0000000
        k(   35) = (  -0.4444444   0.0000000   0.0000000), wk =   0.1111111
        k(   36) = (  -0.0694444   0.0000000   0.0000000), wk =   0.0000000

     Dense  grid:   683529 G-vectors     FFT dimensions: (  30, 216, 216)

     Estimated max dynamical RAM per process >      36.02 MB

     Estimated total dynamical RAM >     720.43 MB

     The potential is recalculated from file :
     ./_ph0/Chain2atoms.save/charge-density


     negative rho (up, down):  2.097E-03 0.000E+00
     Starting wfcs are    8 atomic wfcs

     Band Structure Calculation
     Davidson diagonalization with overlap

     ethr =  1.25E-10,  avg # of iterations = 12.9

     total cpu time spent up to now is       29.7 secs

     End of band structure calculation

          k = 0.0000 0.0000 0.0000 ( 85147 PWs)   bands (ev):

   -21.2872 -12.9912  -9.5427  -9.5427

          k = 0.3750 0.0000 0.0000 ( 85602 PWs)   bands (ev):

   -20.8394 -14.1807  -7.1275  -7.1275

          k = 0.0556 0.0000 0.0000 ( 85206 PWs)   bands (ev):

   -21.2730 -13.0348  -9.4844  -9.4844

          k = 0.4306 0.0000 0.0000 ( 85630 PWs)   bands (ev):

   -20.7799 -14.3169  -6.5784  -6.5784

          k = 0.1111 0.0000 0.0000 ( 85278 PWs)   bands (ev):

   -21.2313 -13.1593  -9.3106  -9.3106

          k = 0.4861 0.0000 0.0000 ( 85694 PWs)   bands (ev):

   -20.7525 -14.3785  -6.2605  -6.2605

          k = 0.1667 0.0000 0.0000 ( 85398 PWs)   bands (ev):

   -21.1658 -13.3477  -9.0239  -9.0239

          k = 0.5417 0.0000 0.0000 ( 85722 PWs)   bands (ev):

   -20.7618 -14.3578  -6.3748  -6.3748

          k = 0.2222 0.0000 0.0000 ( 85494 PWs)   bands (ev):

   -21.0826 -13.5757  -8.6299  -8.6299

          k = 0.5972 0.0000 0.0000 ( 85662 PWs)   bands (ev):

   -20.8062 -14.2573  -6.8386  -6.8386

          k = 0.2778 0.0000 0.0000 ( 85522 PWs)   bands (ev):

   -20.9902 -13.8154  -8.1396  -8.1396

          k = 0.6528 0.0000 0.0000 ( 85582 PWs)   bands (ev):

   -20.8782 -14.0894  -7.4258  -7.4258

          k = 0.3333 0.0000 0.0000 ( 85578 PWs)   bands (ev):

   -20.8993 -14.0391  -7.5743  -7.5743

          k = 0.7083 0.0000 0.0000 ( 85562 PWs)   bands (ev):

   -20.9669 -13.8739  -8.0041  -8.0041

          k = 0.3889 0.0000 0.0000 ( 85614 PWs)   bands (ev):

   -20.8220 -14.2210  -6.9809  -6.9809

          k = 0.7639 0.0000 0.0000 ( 85454 PWs)   bands (ev):

   -21.0600 -13.6356  -8.5158  -8.5158

          k = 0.4444 0.0000 0.0000 ( 85642 PWs)   bands (ev):

   -20.7698 -14.3398  -6.4675  -6.4675

          k = 0.8194 0.0000 0.0000 ( 85450 PWs)   bands (ev):

   -21.1464 -13.4021  -8.9351  -8.9351

          k =-0.5000 0.0000 0.0000 ( 85766 PWs)   bands (ev):

   -20.7513 -14.3811  -6.2455  -6.2455

          k =-0.1250 0.0000 0.0000 ( 85302 PWs)   bands (ev):

   -21.2169 -13.2013  -9.2493  -9.2493

          k =-0.0556 0.0000 0.0000 ( 85206 PWs)   bands (ev):

   -21.2730 -13.0348  -9.4844  -9.4844

          k = 0.3194 0.0000 0.0000 ( 85590 PWs)   bands (ev):

   -20.9212 -13.9861  -7.7208  -7.7208

          k =-0.1111 0.0000 0.0000 ( 85278 PWs)   bands (ev):

   -21.2313 -13.1593  -9.3106  -9.3106

          k = 0.2639 0.0000 0.0000 ( 85494 PWs)   bands (ev):

   -21.0136 -13.7559  -8.2703  -8.2703

          k =-0.1667 0.0000 0.0000 ( 85398 PWs)   bands (ev):

   -21.1658 -13.3477  -9.0239  -9.0239

          k = 0.2083 0.0000 0.0000 ( 85550 PWs)   bands (ev):

   -21.1046 -13.5165  -8.7380  -8.7380

          k =-0.2222 0.0000 0.0000 ( 85494 PWs)   bands (ev):

   -21.0826 -13.5757  -8.6299  -8.6299

          k = 0.1528 0.0000 0.0000 ( 85430 PWs)   bands (ev):

   -21.1841 -13.2959  -9.1059  -9.1059

          k =-0.2778 0.0000 0.0000 ( 85522 PWs)   bands (ev):

   -20.9902 -13.8154  -8.1396  -8.1396

          k = 0.0972 0.0000 0.0000 ( 85262 PWs)   bands (ev):

   -21.2441 -13.1214  -9.3648  -9.3648

          k =-0.3333 0.0000 0.0000 ( 85578 PWs)   bands (ev):

   -20.8993 -14.0391  -7.5743  -7.5743

          k = 0.0417 0.0000 0.0000 ( 85191 PWs)   bands (ev):

   -21.2792 -13.0159  -9.5099  -9.5099

          k =-0.3889 0.0000 0.0000 ( 85614 PWs)   bands (ev):

   -20.8220 -14.2210  -6.9809  -6.9809

          k =-0.0139 0.0000 0.0000 ( 85155 PWs)   bands (ev):

   -21.2863 -12.9940  -9.5390  -9.5390

          k =-0.4444 0.0000 0.0000 ( 85642 PWs)   bands (ev):

   -20.7698 -14.3398  -6.4675  -6.4675

          k =-0.0694 0.0000 0.0000 ( 85262 PWs)   bands (ev):

   -21.2650 -13.0589  -9.4517  -9.4517

     highest occupied level (ev):    -6.2455

     Writing output data file ./_ph0/Chain2atoms.save/

                                                                                

     bravais-lattice index     =            8
     lattice parameter (alat)  =       4.9525  a.u.
     unit-cell volume          =    7074.2618 (a.u.)^3
     number of atoms/cell      =            2
     number of atomic types    =            2
     kinetic-energy cut-off    =      80.0000  Ry
     charge density cut-off    =     320.0000  Ry
     convergence threshold     =      1.0E-20
     beta                      =       0.7000
     number of iterations used =            4
     Exchange-correlation= PBE
                           (   1   4   3   4   0   0   0)


     celldm(1)=    4.95249  celldm(2)=    7.63142  celldm(3)=    7.63142
     celldm(4)=    0.00000  celldm(5)=    0.00000  celldm(6)=    0.00000

     crystal axes: (cart. coord. in units of alat)
               a(1) = (  1.0000  0.0000  0.0000 )  
               a(2) = (  0.0000  7.6314  0.0000 )  
               a(3) = (  0.0000  0.0000  7.6314 )  

     reciprocal axes: (cart. coord. in units 2 pi/alat)
               b(1) = (  1.0000  0.0000  0.0000 )  
               b(2) = (  0.0000  0.1310  0.0000 )  
               b(3) = (  0.0000  0.0000  0.1310 )  


     Atoms inside the unit cell: 

     Cartesian axes

     site n.  atom      mass           positions (alat units)
        1     B   10.8110   tau(    1) = (   -0.14112    0.00000    0.00000  )
        2     N   14.0067   tau(    2) = (    0.35878    0.00000    0.00000  )

     Computing dynamical matrix for 
                    q = (   0.3750000   0.0000000   0.0000000 )
 
      8 Sym.Ops. (no q -> -q+G )


     G cutoff =  198.8095  (  34172 G-vectors)     FFT grid: ( 30,216,216)
     number of k points=    36

     PseudoPot. # 1 for B  read from file:
     ../Pseudo/B.pbe-n-rrkjus_psl.1.0.0.UPF
     MD5 check sum: 63df43e07c319b5f28dc02596645f850
     Pseudo is Ultrasoft + core correction, Zval =  3.0
     Generated using "atomic" code by A. Dal Corso  v.5.1.2
     Using radial grid of 1059 points,  4 beta functions with: 
                l(1) =   0
                l(2) =   0
                l(3) =   1
                l(4) =   1
     Q(r) pseudized with 0 coefficients 


     PseudoPot. # 2 for N  read from file:
     ../Pseudo/N.pbe-rrkjus.UPF
     MD5 check sum: 0c3fbe5807a93f9ba59d5a7019aa238b
     Pseudo is Ultrasoft, Zval =  5.0
     Generated by new atomic code, or converted to UPF format
     Using radial grid of 1257 points,  4 beta functions with: 
                l(1) =   0
                l(2) =   0
                l(3) =   1
                l(4) =   1
     Q(r) pseudized with 0 coefficients 


     Mode symmetry, C_4v (4mm)  point group:


     Atomic displacements:
     There are    4 irreducible representations

     Representation     1      1 modes -  To be done

     Representation     2      1 modes -  To be done

     Representation     3      2 modes -  To be done

     Representation     4      2 modes -  To be done



     Alpha used in Ewald sum =   2.8000

     negative rho (up, down):  2.097E-03 0.000E+00
     PHONON       :  10m36.02s CPU  11m22.28s WALL



     Representation #   1 mode #   1

     Self-consistent Calculation

      iter #   1 total cpu time :   685.7 secs   av.it.:   6.6
      thresh= 1.000E-02 alpha_mix =  0.700 |ddv_scf|^2 =  7.990E-08

      iter #   2 total cpu time :   690.6 secs   av.it.:  12.0
      thresh= 2.827E-05 alpha_mix =  0.700 |ddv_scf|^2 =  1.231E-07

      iter #   3 total cpu time :   695.2 secs   av.it.:  11.1
      thresh= 3.509E-05 alpha_mix =  0.700 |ddv_scf|^2 =  8.519E-10

      iter #   4 total cpu time :   699.9 secs   av.it.:  11.8
      thresh= 2.919E-06 alpha_mix =  0.700 |ddv_scf|^2 =  1.422E-10

      iter #   5 total cpu time :   704.6 secs   av.it.:  11.5
      thresh= 1.193E-06 alpha_mix =  0.700 |ddv_scf|^2 =  2.569E-12

      iter #   6 total cpu time :   709.2 secs   av.it.:  11.4
      thresh= 1.603E-07 alpha_mix =  0.700 |ddv_scf|^2 =  1.308E-15

      iter #   7 total cpu time :   713.9 secs   av.it.:  11.4
      thresh= 3.616E-09 alpha_mix =  0.700 |ddv_scf|^2 =  9.175E-17

      iter #   8 total cpu time :   718.5 secs   av.it.:  11.3
      thresh= 9.579E-10 alpha_mix =  0.700 |ddv_scf|^2 =  2.109E-18

      iter #   9 total cpu time :   723.1 secs   av.it.:  11.4
      thresh= 1.452E-10 alpha_mix =  0.700 |ddv_scf|^2 =  8.973E-20

      iter #  10 total cpu time :   728.0 secs   av.it.:  12.2
      thresh= 2.996E-11 alpha_mix =  0.700 |ddv_scf|^2 =  9.917E-21

     End of self-consistent calculation

     Convergence has been achieved 


     Representation #   2 mode #   2

     Self-consistent Calculation

      iter #   1 total cpu time :   731.4 secs   av.it.:   6.0
      thresh= 1.000E-02 alpha_mix =  0.700 |ddv_scf|^2 =  1.248E-07

      iter #   2 total cpu time :   736.0 secs   av.it.:  11.2
      thresh= 3.532E-05 alpha_mix =  0.700 |ddv_scf|^2 =  3.888E-08

      iter #   3 total cpu time :   740.7 secs   av.it.:  11.9
      thresh= 1.972E-05 alpha_mix =  0.700 |ddv_scf|^2 =  3.779E-08

      iter #   4 total cpu time :   745.3 secs   av.it.:  11.3
      thresh= 1.944E-05 alpha_mix =  0.700 |ddv_scf|^2 =  1.742E-10

      iter #   5 total cpu time :   749.9 secs   av.it.:  11.7
      thresh= 1.320E-06 alpha_mix =  0.700 |ddv_scf|^2 =  5.742E-13

      iter #   6 total cpu time :   754.6 secs   av.it.:  11.6
      thresh= 7.577E-08 alpha_mix =  0.700 |ddv_scf|^2 =  4.210E-15

      iter #   7 total cpu time :   759.3 secs   av.it.:  11.6
      thresh= 6.488E-09 alpha_mix =  0.700 |ddv_scf|^2 =  2.750E-16

      iter #   8 total cpu time :   764.0 secs   av.it.:  11.4
      thresh= 1.658E-09 alpha_mix =  0.700 |ddv_scf|^2 =  4.906E-19

      iter #   9 total cpu time :   768.8 secs   av.it.:  12.1
      thresh= 7.004E-11 alpha_mix =  0.700 |ddv_scf|^2 =  4.434E-21

     End of self-consistent calculation

     Convergence has been achieved 


     Representation #   3 modes #   3   4

     Self-consistent Calculation

      iter #   1 total cpu time :   774.7 secs   av.it.:   5.1
      thresh= 1.000E-02 alpha_mix =  0.700 |ddv_scf|^2 =  8.872E-09

      iter #   2 total cpu time :   783.0 secs   av.it.:  10.1
      thresh= 9.419E-06 alpha_mix =  0.700 |ddv_scf|^2 =  7.879E-10

      iter #   3 total cpu time :   791.0 secs   av.it.:   9.7
      thresh= 2.807E-06 alpha_mix =  0.700 |ddv_scf|^2 =  1.292E-13

      iter #   4 total cpu time :   800.5 secs   av.it.:  12.4
      thresh= 3.595E-08 alpha_mix =  0.700 |ddv_scf|^2 =  2.648E-15

      iter #   5 total cpu time :   809.9 secs   av.it.:  11.9
      thresh= 5.146E-09 alpha_mix =  0.700 |ddv_scf|^2 =  8.879E-17

      iter #   6 total cpu time :   818.8 secs   av.it.:  11.2
      thresh= 9.423E-10 alpha_mix =  0.700 |ddv_scf|^2 =  1.586E-19

      iter #   7 total cpu time :   827.7 secs   av.it.:  11.6
      thresh= 3.982E-11 alpha_mix =  0.700 |ddv_scf|^2 =  4.269E-21

     End of self-consistent calculation

     Convergence has been achieved 


     Representation #   4 modes #   5   6

     Self-consistent Calculation

      iter #   1 total cpu time :   833.9 secs   av.it.:   6.0
      thresh= 1.000E-02 alpha_mix =  0.700 |ddv_scf|^2 =  1.806E-09

      iter #   2 total cpu time :   843.5 secs   av.it.:  12.5
      thresh= 4.249E-06 alpha_mix =  0.700 |ddv_scf|^2 =  3.123E-11

      iter #   3 total cpu time :   852.9 secs   av.it.:  12.1
      thresh= 5.589E-07 alpha_mix =  0.700 |ddv_scf|^2 =  1.793E-12

      iter #   4 total cpu time :   861.6 secs   av.it.:  10.9
      thresh= 1.339E-07 alpha_mix =  0.700 |ddv_scf|^2 =  7.232E-16

      iter #   5 total cpu time :   870.7 secs   av.it.:  11.8
      thresh= 2.689E-09 alpha_mix =  0.700 |ddv_scf|^2 =  2.617E-17

      iter #   6 total cpu time :   880.3 secs   av.it.:  11.8
      thresh= 5.116E-10 alpha_mix =  0.700 |ddv_scf|^2 =  3.845E-19

      iter #   7 total cpu time :   891.0 secs   av.it.:  11.9
      thresh= 6.201E-11 alpha_mix =  0.700 |ddv_scf|^2 =  8.009E-21

     End of self-consistent calculation

     Convergence has been achieved 
 
     Number of q in the star =    1
     List of q in the star:
          1   0.375000000   0.000000000   0.000000000
     In addition there is the -q list: 
          1  -0.375000000   0.000000000   0.000000000

     Diagonalizing the dynamical matrix

     q = (    0.375000000   0.000000000   0.000000000 ) 

 **************************************************************************
     freq (    1) =       2.639353 [THz] =      88.039350 [cm-1]
     freq (    2) =       2.639353 [THz] =      88.039350 [cm-1]
     freq (    3) =      13.892824 [THz] =     463.414733 [cm-1]
     freq (    4) =      13.892824 [THz] =     463.414733 [cm-1]
     freq (    5) =      39.538765 [THz] =    1318.871246 [cm-1]
     freq (    6) =      58.416130 [THz] =    1948.552339 [cm-1]
 **************************************************************************

     Mode symmetry, C_4v (4mm)  point group:

     freq (   1-   2) =         88.0  [cm-1]   --> E    G_5 D_5       
     freq (   3-   4) =        463.4  [cm-1]   --> E    G_5 D_5       
     freq (   5-   5) =       1318.9  [cm-1]   --> A_1  G_1 D_1       
     freq (   6-   6) =       1948.6  [cm-1]   --> A_1  G_1 D_1       

     Calculation of q =   -0.5000000   0.0000000   0.0000000
 
     Parallelization info
     --------------------
     sticks:   dense  smooth     PW     G-vecs:    dense   smooth      PW
     Min         238     238     77                34170    34170    6341
     Max         239     239     78                34183    34183    6348
     Sum        4771    4771   1551               683529   683529  126881
 


     bravais-lattice index     =            8
     lattice parameter (alat)  =       4.9525  a.u.
     unit-cell volume          =    7074.2618 (a.u.)^3
     number of atoms/cell      =            2
     number of atomic types    =            2
     number of electrons       =         8.00
     number of Kohn-Sham states=            4
     kinetic-energy cutoff     =      80.0000  Ry
     charge density cutoff     =     320.0000  Ry
     Exchange-correlation= PBE
                           (   1   4   3   4   0   0   0)

     celldm(1)=   4.952488  celldm(2)=   7.631422  celldm(3)=   7.631422
     celldm(4)=   0.000000  celldm(5)=   0.000000  celldm(6)=   0.000000

     crystal axes: (cart. coord. in units of alat)
               a(1) = (   1.000000   0.000000   0.000000 )  
               a(2) = (   0.000000   7.631422   0.000000 )  
               a(3) = (   0.000000   0.000000   7.631422 )  

     reciprocal axes: (cart. coord. in units 2 pi/alat)
               b(1) = (  1.000000  0.000000  0.000000 )  
               b(2) = (  0.000000  0.131037  0.000000 )  
               b(3) = (  0.000000  0.000000  0.131037 )  


     PseudoPot. # 1 for B  read from file:
     ../Pseudo/B.pbe-n-rrkjus_psl.1.0.0.UPF
     MD5 check sum: 63df43e07c319b5f28dc02596645f850
     Pseudo is Ultrasoft + core correction, Zval =  3.0
     Generated using "atomic" code by A. Dal Corso  v.5.1.2
     Using radial grid of 1059 points,  4 beta functions with: 
                l(1) =   0
                l(2) =   0
                l(3) =   1
                l(4) =   1
     Q(r) pseudized with 0 coefficients 


     PseudoPot. # 2 for N  read from file:
     ../Pseudo/N.pbe-rrkjus.UPF
     MD5 check sum: 0c3fbe5807a93f9ba59d5a7019aa238b
     Pseudo is Ultrasoft, Zval =  5.0
     Generated by new atomic code, or converted to UPF format
     Using radial grid of 1257 points,  4 beta functions with: 
                l(1) =   0
                l(2) =   0
                l(3) =   1
                l(4) =   1
     Q(r) pseudized with 0 coefficients 


     atomic species   valence    mass     pseudopotential
        B              3.00    10.81100     B ( 1.00)
        N              5.00    14.00670     N ( 1.00)

      8 Sym. Ops. (no inversion) found



   Cartesian axes

     site n.     atom                  positions (alat units)
         1           B   tau(   1) = (  -0.1411180   0.0000000   0.0000000  )
         2           N   tau(   2) = (   0.3587818   0.0000000   0.0000000  )

     number of k points=    20
                       cart. coord. in units 2pi/alat
        k(    1) = (   0.0000000   0.0000000   0.0000000), wk =   0.1111111
        k(    2) = (  -0.5000000   0.0000000   0.0000000), wk =   0.0000000
        k(    3) = (   0.0555556   0.0000000   0.0000000), wk =   0.2222222
        k(    4) = (  -0.4444444   0.0000000   0.0000000), wk =   0.0000000
        k(    5) = (   0.1111111   0.0000000   0.0000000), wk =   0.2222222
        k(    6) = (  -0.3888889   0.0000000   0.0000000), wk =   0.0000000
        k(    7) = (   0.1666667   0.0000000   0.0000000), wk =   0.2222222
        k(    8) = (  -0.3333333   0.0000000   0.0000000), wk =   0.0000000
        k(    9) = (   0.2222222   0.0000000   0.0000000), wk =   0.2222222
        k(   10) = (  -0.2777778   0.0000000   0.0000000), wk =   0.0000000
        k(   11) = (   0.2777778   0.0000000   0.0000000), wk =   0.2222222
        k(   12) = (  -0.2222222   0.0000000   0.0000000), wk =   0.0000000
        k(   13) = (   0.3333333   0.0000000   0.0000000), wk =   0.2222222
        k(   14) = (  -0.1666667   0.0000000   0.0000000), wk =   0.0000000
        k(   15) = (   0.3888889   0.0000000   0.0000000), wk =   0.2222222
        k(   16) = (  -0.1111111   0.0000000   0.0000000), wk =   0.0000000
        k(   17) = (   0.4444444   0.0000000   0.0000000), wk =   0.2222222
        k(   18) = (  -0.0555556   0.0000000   0.0000000), wk =   0.0000000
        k(   19) = (  -0.5000000   0.0000000   0.0000000), wk =   0.1111111
        k(   20) = (  -1.0000000   0.0000000   0.0000000), wk =   0.0000000

     Dense  grid:   683529 G-vectors     FFT dimensions: (  30, 216, 216)

     Estimated max dynamical RAM per process >      36.03 MB

     Estimated total dynamical RAM >     720.70 MB

     The potential is recalculated from file :
     ./_ph0/Chain2atoms.save/charge-density


     negative rho (up, down):  2.097E-03 0.000E+00
     Starting wfcs are    8 atomic wfcs

     Band Structure Calculation
     Davidson diagonalization with overlap

     ethr =  1.25E-10,  avg # of iterations = 12.6

     total cpu time spent up to now is       36.4 secs

     End of band structure calculation

          k = 0.0000 0.0000 0.0000 ( 85147 PWs)   bands (ev):

   -21.2872 -12.9912  -9.5427  -9.5427

          k =-0.5000 0.0000 0.0000 ( 85766 PWs)   bands (ev):

   -20.7513 -14.3811  -6.2455  -6.2455

          k = 0.0556 0.0000 0.0000 ( 85206 PWs)   bands (ev):

   -21.2730 -13.0348  -9.4844  -9.4844

          k =-0.4444 0.0000 0.0000 ( 85642 PWs)   bands (ev):

   -20.7698 -14.3398  -6.4675  -6.4675

          k = 0.1111 0.0000 0.0000 ( 85278 PWs)   bands (ev):

   -21.2313 -13.1593  -9.3106  -9.3106

          k =-0.3889 0.0000 0.0000 ( 85614 PWs)   bands (ev):

   -20.8220 -14.2210  -6.9809  -6.9809

          k = 0.1667 0.0000 0.0000 ( 85398 PWs)   bands (ev):

   -21.1658 -13.3477  -9.0239  -9.0239

          k =-0.3333 0.0000 0.0000 ( 85578 PWs)   bands (ev):

   -20.8993 -14.0391  -7.5743  -7.5743

          k = 0.2222 0.0000 0.0000 ( 85494 PWs)   bands (ev):

   -21.0826 -13.5757  -8.6299  -8.6299

          k =-0.2778 0.0000 0.0000 ( 85522 PWs)   bands (ev):

   -20.9902 -13.8154  -8.1396  -8.1396

          k = 0.2778 0.0000 0.0000 ( 85522 PWs)   bands (ev):

   -20.9902 -13.8154  -8.1396  -8.1396

          k =-0.2222 0.0000 0.0000 ( 85494 PWs)   bands (ev):

   -21.0826 -13.5757  -8.6299  -8.6299

          k = 0.3333 0.0000 0.0000 ( 85578 PWs)   bands (ev):

   -20.8993 -14.0391  -7.5743  -7.5743

          k =-0.1667 0.0000 0.0000 ( 85398 PWs)   bands (ev):

   -21.1658 -13.3477  -9.0239  -9.0239

          k = 0.3889 0.0000 0.0000 ( 85614 PWs)   bands (ev):

   -20.8220 -14.2210  -6.9809  -6.9809

          k =-0.1111 0.0000 0.0000 ( 85278 PWs)   bands (ev):

   -21.2313 -13.1593  -9.3106  -9.3106

          k = 0.4444 0.0000 0.0000 ( 85642 PWs)   bands (ev):

   -20.7698 -14.3398  -6.4675  -6.4675

          k =-0.0556 0.0000 0.0000 ( 85206 PWs)   bands (ev):

   -21.2730 -13.0348  -9.4844  -9.4844

          k =-0.5000 0.0000 0.0000 ( 85766 PWs)   bands (ev):

   -20.7513 -14.3811  -6.2455  -6.2455

          k =-1.0000 0.0000 0.0000 ( 85147 PWs)   bands (ev):

   -21.2872 -12.9912  -9.5427  -9.5427

     highest occupied level (ev):    -6.2455

     Writing output data file ./_ph0/Chain2atoms.save/

                                                                                

     bravais-lattice index     =            8
     lattice parameter (alat)  =       4.9525  a.u.
     unit-cell volume          =    7074.2618 (a.u.)^3
     number of atoms/cell      =            2
     number of atomic types    =            2
     kinetic-energy cut-off    =      80.0000  Ry
     charge density cut-off    =     320.0000  Ry
     convergence threshold     =      1.0E-20
     beta                      =       0.7000
     number of iterations used =            4
     Exchange-correlation= PBE
                           (   1   4   3   4   0   0   0)


     celldm(1)=    4.95249  celldm(2)=    7.63142  celldm(3)=    7.63142
     celldm(4)=    0.00000  celldm(5)=    0.00000  celldm(6)=    0.00000

     crystal axes: (cart. coord. in units of alat)
               a(1) = (  1.0000  0.0000  0.0000 )  
               a(2) = (  0.0000  7.6314  0.0000 )  
               a(3) = (  0.0000  0.0000  7.6314 )  

     reciprocal axes: (cart. coord. in units 2 pi/alat)
               b(1) = (  1.0000  0.0000  0.0000 )  
               b(2) = (  0.0000  0.1310  0.0000 )  
               b(3) = (  0.0000  0.0000  0.1310 )  


     Atoms inside the unit cell: 

     Cartesian axes

     site n.  atom      mass           positions (alat units)
        1     B   10.8110   tau(    1) = (   -0.14112    0.00000    0.00000  )
        2     N   14.0067   tau(    2) = (    0.35878    0.00000    0.00000  )

     Computing dynamical matrix for 
                    q = (  -0.5000000   0.0000000   0.0000000 )
 
      9 Sym.Ops. (with q -> -q+G )


     G cutoff =  198.8095  (  34172 G-vectors)     FFT grid: ( 30,216,216)
     number of k points=    20

     PseudoPot. # 1 for B  read from file:
     ../Pseudo/B.pbe-n-rrkjus_psl.1.0.0.UPF
     MD5 check sum: 63df43e07c319b5f28dc02596645f850
     Pseudo is Ultrasoft + core correction, Zval =  3.0
     Generated using "atomic" code by A. Dal Corso  v.5.1.2
     Using radial grid of 1059 points,  4 beta functions with: 
                l(1) =   0
                l(2) =   0
                l(3) =   1
                l(4) =   1
     Q(r) pseudized with 0 coefficients 


     PseudoPot. # 2 for N  read from file:
     ../Pseudo/N.pbe-rrkjus.UPF
     MD5 check sum: 0c3fbe5807a93f9ba59d5a7019aa238b
     Pseudo is Ultrasoft, Zval =  5.0
     Generated by new atomic code, or converted to UPF format
     Using radial grid of 1257 points,  4 beta functions with: 
                l(1) =   0
                l(2) =   0
                l(3) =   1
                l(4) =   1
     Q(r) pseudized with 0 coefficients 


     Mode symmetry, C_4v (4mm)  point group:


     Atomic displacements:
     There are    4 irreducible representations

     Representation     1      1 modes -  To be done

     Representation     2      1 modes -  To be done

     Representation     3      2 modes -  To be done

     Representation     4      2 modes -  To be done



     Alpha used in Ewald sum =   2.8000

     negative rho (up, down):  2.097E-03 0.000E+00
     PHONON       :  14m 0.42s CPU  15m 1.52s WALL



     Representation #   1 mode #   1

     Self-consistent Calculation

      iter #   1 total cpu time :   904.1 secs   av.it.:   6.5
      thresh= 1.000E-02 alpha_mix =  0.700 |ddv_scf|^2 =  6.651E-08

      iter #   2 total cpu time :   907.6 secs   av.it.:  12.1
      thresh= 2.579E-05 alpha_mix =  0.700 |ddv_scf|^2 =  7.899E-08

      iter #   3 total cpu time :   910.9 secs   av.it.:  11.1
      thresh= 2.811E-05 alpha_mix =  0.700 |ddv_scf|^2 =  3.377E-11

      iter #   4 total cpu time :   914.2 secs   av.it.:  11.0
      thresh= 5.811E-07 alpha_mix =  0.700 |ddv_scf|^2 =  4.327E-13

      iter #   5 total cpu time :   917.6 secs   av.it.:  11.6
      thresh= 6.578E-08 alpha_mix =  0.700 |ddv_scf|^2 =  1.445E-13

      iter #   6 total cpu time :   921.0 secs   av.it.:  11.5
      thresh= 3.801E-08 alpha_mix =  0.700 |ddv_scf|^2 =  1.702E-15

      iter #   7 total cpu time :   924.5 secs   av.it.:  11.6
      thresh= 4.126E-09 alpha_mix =  0.700 |ddv_scf|^2 =  6.501E-17

      iter #   8 total cpu time :   927.7 secs   av.it.:  10.8
      thresh= 8.063E-10 alpha_mix =  0.700 |ddv_scf|^2 =  1.303E-18

      iter #   9 total cpu time :   931.2 secs   av.it.:  11.8
      thresh= 1.141E-10 alpha_mix =  0.700 |ddv_scf|^2 =  2.842E-19

      iter #  10 total cpu time :   934.7 secs   av.it.:  11.5
      thresh= 5.331E-11 alpha_mix =  0.700 |ddv_scf|^2 =  3.546E-21

     End of self-consistent calculation

     Convergence has been achieved 


     Representation #   2 mode #   2

     Self-consistent Calculation

      iter #   1 total cpu time :   937.3 secs   av.it.:   5.9
      thresh= 1.000E-02 alpha_mix =  0.700 |ddv_scf|^2 =  7.734E-08

      iter #   2 total cpu time :   940.6 secs   av.it.:  11.2
      thresh= 2.781E-05 alpha_mix =  0.700 |ddv_scf|^2 =  3.446E-08

      iter #   3 total cpu time :   944.1 secs   av.it.:  11.8
      thresh= 1.856E-05 alpha_mix =  0.700 |ddv_scf|^2 =  1.650E-08

      iter #   4 total cpu time :   947.4 secs   av.it.:  11.2
      thresh= 1.285E-05 alpha_mix =  0.700 |ddv_scf|^2 =  5.030E-13

      iter #   5 total cpu time :   950.8 secs   av.it.:  11.3
      thresh= 7.092E-08 alpha_mix =  0.700 |ddv_scf|^2 =  1.408E-14

      iter #   6 total cpu time :   954.3 secs   av.it.:  11.9
      thresh= 1.187E-08 alpha_mix =  0.700 |ddv_scf|^2 =  1.783E-15

      iter #   7 total cpu time :   957.8 secs   av.it.:  11.5
      thresh= 4.223E-09 alpha_mix =  0.700 |ddv_scf|^2 =  1.775E-16

      iter #   8 total cpu time :   961.3 secs   av.it.:  11.9
      thresh= 1.332E-09 alpha_mix =  0.700 |ddv_scf|^2 =  1.800E-18

      iter #   9 total cpu time :   964.8 secs   av.it.:  11.9
      thresh= 1.342E-10 alpha_mix =  0.700 |ddv_scf|^2 =  2.661E-20

      iter #  10 total cpu time :   968.2 secs   av.it.:  11.9
      thresh= 1.631E-11 alpha_mix =  0.700 |ddv_scf|^2 =  3.009E-22

     End of self-consistent calculation

     Convergence has been achieved 


     Representation #   3 modes #   3   4

     Self-consistent Calculation

      iter #   1 total cpu time :   972.7 secs   av.it.:   5.2
      thresh= 1.000E-02 alpha_mix =  0.700 |ddv_scf|^2 =  7.217E-09

      iter #   2 total cpu time :   978.6 secs   av.it.:   9.8
      thresh= 8.495E-06 alpha_mix =  0.700 |ddv_scf|^2 =  6.562E-10

      iter #   3 total cpu time :   984.3 secs   av.it.:   9.4
      thresh= 2.562E-06 alpha_mix =  0.700 |ddv_scf|^2 =  5.474E-14

      iter #   4 total cpu time :   991.0 secs   av.it.:  11.9
      thresh= 2.340E-08 alpha_mix =  0.700 |ddv_scf|^2 =  1.359E-15

      iter #   5 total cpu time :   997.0 secs   av.it.:  10.0
      thresh= 3.686E-09 alpha_mix =  0.700 |ddv_scf|^2 =  1.111E-17

      iter #   6 total cpu time :  1003.3 secs   av.it.:  11.3
      thresh= 3.333E-10 alpha_mix =  0.700 |ddv_scf|^2 =  1.807E-20

      iter #   7 total cpu time :  1010.0 secs   av.it.:  11.9
      thresh= 1.344E-11 alpha_mix =  0.700 |ddv_scf|^2 =  6.096E-23

     End of self-consistent calculation

     Convergence has been achieved 


     Representation #   4 modes #   5   6

     Self-consistent Calculation

      iter #   1 total cpu time :  1014.7 secs   av.it.:   5.8
      thresh= 1.000E-02 alpha_mix =  0.700 |ddv_scf|^2 =  1.383E-09

      iter #   2 total cpu time :  1021.5 secs   av.it.:  12.5
      thresh= 3.719E-06 alpha_mix =  0.700 |ddv_scf|^2 =  1.902E-11

      iter #   3 total cpu time :  1028.3 secs   av.it.:  12.3
      thresh= 4.361E-07 alpha_mix =  0.700 |ddv_scf|^2 =  1.099E-12

      iter #   4 total cpu time :  1034.8 secs   av.it.:  11.2
      thresh= 1.048E-07 alpha_mix =  0.700 |ddv_scf|^2 =  8.459E-16

      iter #   5 total cpu time :  1041.5 secs   av.it.:  12.0
      thresh= 2.908E-09 alpha_mix =  0.700 |ddv_scf|^2 =  1.622E-17

      iter #   6 total cpu time :  1048.3 secs   av.it.:  12.2
      thresh= 4.027E-10 alpha_mix =  0.700 |ddv_scf|^2 =  3.845E-19

      iter #   7 total cpu time :  1054.6 secs   av.it.:  11.1
      thresh= 6.201E-11 alpha_mix =  0.700 |ddv_scf|^2 =  3.322E-22

     End of self-consistent calculation

     Convergence has been achieved 
 
     Number of q in the star =    1
     List of q in the star:
          1  -0.500000000   0.000000000   0.000000000

     Diagonalizing the dynamical matrix

     q = (   -0.500000000   0.000000000   0.000000000 ) 

 **************************************************************************
     freq (    1) =       3.489970 [THz] =     116.412853 [cm-1]
     freq (    2) =       3.489970 [THz] =     116.412853 [cm-1]
     freq (    3) =      13.664102 [THz] =     455.785393 [cm-1]
     freq (    4) =      13.664102 [THz] =     455.785393 [cm-1]
     freq (    5) =      47.689236 [THz] =    1590.741669 [cm-1]
     freq (    6) =      52.647683 [THz] =    1756.137667 [cm-1]
 **************************************************************************

     Mode symmetry, C_4v (4mm)  point group:

     freq (   1-   2) =        116.4  [cm-1]   --> E    G_5 D_5       
     freq (   3-   4) =        455.8  [cm-1]   --> E    G_5 D_5       
     freq (   5-   5) =       1590.7  [cm-1]   --> A_1  G_1 D_1       
     freq (   6-   6) =       1756.1  [cm-1]   --> A_1  G_1 D_1       
 
     init_run     :      2.71s CPU      2.78s WALL (       4 calls)
     electrons    :     31.65s CPU     33.58s WALL (       4 calls)

     Called by init_run:
     wfcinit      :      0.00s CPU      0.00s WALL (       4 calls)
     potinit      :      0.32s CPU      0.36s WALL (       4 calls)
     hinit0       :      1.19s CPU      1.19s WALL (       4 calls)

     Called by electrons:
     c_bands      :     31.64s CPU     33.58s WALL (       4 calls)
     v_of_rho     :      0.23s CPU      0.25s WALL (       5 calls)
     newd         :      0.26s CPU      0.28s WALL (       5 calls)

     Called by c_bands:
     init_us_2    :      4.68s CPU      4.78s WALL (    3406 calls)
     cegterg      :     27.38s CPU     29.01s WALL (     128 calls)

     Called by *egterg:
     cdiaghg      :      3.17s CPU      3.19s WALL (    1784 calls)
     h_psi        :    580.34s CPU    623.86s WALL (   50219 calls)
     s_psi        :     17.03s CPU     17.33s WALL (  102418 calls)
     g_psi        :      0.22s CPU      0.22s WALL (    1656 calls)

     Called by h_psi:
     h_psi:calbec :     21.28s CPU     22.73s WALL (   50219 calls)
     vloc_psi     :    541.73s CPU    583.53s WALL (   50219 calls)
     add_vuspsi   :     14.78s CPU     15.04s WALL (   50219 calls)

     General routines
     calbec       :     37.05s CPU     38.82s WALL (  112406 calls)
     fft          :     14.11s CPU     15.46s WALL (    4525 calls)
     ffts         :      1.77s CPU      1.93s WALL (     654 calls)
     fftw         :    566.05s CPU    613.59s WALL (  425790 calls)
     davcio       :      2.07s CPU      4.06s WALL (   20124 calls)
 
     Parallel routines
     fft_scatt_xy :     73.71s CPU     79.53s WALL (  430969 calls)
     fft_scatt_yz :    236.12s CPU    268.06s WALL (  430969 calls)
 
     PHONON       :  16m23.78s CPU  17m34.93s WALL

     INITIALIZATION: 
     phq_setup    :      0.50s CPU      0.53s WALL (       5 calls)
     phq_init     :     16.89s CPU     17.30s WALL (       5 calls)
 
     phq_init     :     16.89s CPU     17.30s WALL (       5 calls)
     set_drhoc    :      3.93s CPU      3.94s WALL (      15 calls)
     init_vloc    :      0.83s CPU      0.83s WALL (       5 calls)
     init_us_1    :      0.31s CPU      0.31s WALL (       5 calls)
     newd         :      0.26s CPU      0.28s WALL (       5 calls)
     dvanqq       :      2.62s CPU      2.63s WALL (       5 calls)
     drho         :      6.86s CPU      7.19s WALL (       5 calls)
 
     DYNAMICAL MATRIX:
     dynmat0      :      3.45s CPU      3.49s WALL (       5 calls)
     phqscf       :    846.42s CPU    908.33s WALL (       5 calls)
     dynmatrix    :      0.00s CPU      0.03s WALL (       5 calls)
 
     phqscf       :    846.42s CPU    908.33s WALL (       5 calls)
     solve_linter :    843.87s CPU    905.45s WALL (      20 calls)
     drhodv       :      1.52s CPU      1.59s WALL (      20 calls)
 
     dynmat0      :      3.45s CPU      3.49s WALL (       5 calls)
     dynmat_us    :      0.34s CPU      0.35s WALL (       5 calls)
     d2ionq       :      0.08s CPU      0.08s WALL (       5 calls)
     dynmatcc     :      2.95s CPU      2.97s WALL (       5 calls)
 
     dynmat_us    :      0.34s CPU      0.35s WALL (       5 calls)
     addusdynmat  :      0.00s CPU      0.00s WALL (       5 calls)
 
     phqscf       :    846.42s CPU    908.33s WALL (       5 calls)
     solve_linter :    843.87s CPU    905.45s WALL (      20 calls)
 
     solve_linter :    843.87s CPU    905.45s WALL (      20 calls)
     dvqpsi_us    :      8.43s CPU      9.08s WALL (     504 calls)
     ortho        :      3.22s CPU      3.33s WALL (    3862 calls)
     cgsolve      :    633.29s CPU    676.23s WALL (    3862 calls)
     incdrhoscf   :     65.61s CPU     70.19s WALL (    3862 calls)
     addusddens   :     14.59s CPU     14.87s WALL (     187 calls)
     vpsifft      :     39.05s CPU     42.71s WALL (    3088 calls)
     dv_of_drho   :     12.77s CPU     14.15s WALL (     271 calls)
     mix_pot      :      1.62s CPU      3.34s WALL (     177 calls)
     psymdvscf    :    106.48s CPU    114.35s WALL (     167 calls)
     newdq        :     16.75s CPU     16.88s WALL (     177 calls)
     adddvscf     :      1.40s CPU      1.47s WALL (    3358 calls)
     drhodvus     :      0.09s CPU      0.14s WALL (      20 calls)
 
     dvqpsi_us    :      8.43s CPU      9.08s WALL (     504 calls)
     dvqpsi_us_on :      0.34s CPU      0.35s WALL (     504 calls)
 
     cgsolve      :    633.29s CPU    676.23s WALL (    3862 calls)
     ch_psi       :    613.51s CPU    656.08s WALL (   48307 calls)
 
     ch_psi       :    613.51s CPU    656.08s WALL (   48307 calls)
     h_psi        :    580.34s CPU    623.86s WALL (   50219 calls)
     last         :     39.27s CPU     39.90s WALL (   48307 calls)
 
     h_psi        :    580.34s CPU    623.86s WALL (   50219 calls)
     add_vuspsi   :     14.78s CPU     15.04s WALL (   50219 calls)
 
     incdrhoscf   :     65.61s CPU     70.19s WALL (    3862 calls)
     addusdbec    :      2.39s CPU      2.41s WALL (    4306 calls)
 
     drhodvus     :      0.09s CPU      0.14s WALL (      20 calls)
 
      General routines
     calbec       :     37.05s CPU     38.82s WALL (  112406 calls)
     fft          :     14.11s CPU     15.46s WALL (    4525 calls)
     ffts         :      1.77s CPU      1.93s WALL (     654 calls)
     fftw         :    566.05s CPU    613.59s WALL (  425790 calls)
     davcio       :      2.07s CPU      4.06s WALL (   20124 calls)
     write_rec    :      0.06s CPU      1.85s WALL (     197 calls)
 
 
     PHONON       :  16m23.78s CPU  17m34.93s WALL

 
   This run was terminated on:  14:43:13   7Dec2021            

=------------------------------------------------------------------------------=
   JOB DONE.
=------------------------------------------------------------------------------=
