
     Program Q2R v.6.7MaX starts on  7Dec2021 at 14:43:14 

     This program is part of the open-source Quantum ESPRESSO suite
     for quantum simulation of materials; please cite
         "P. Giannozzi et al., J. Phys.:Condens. Matter 21 395502 (2009);
         "P. Giannozzi et al., J. Phys.:Condens. Matter 29 465901 (2017);
          URL http://www.quantum-espresso.org", 
     in publications or presentations arising from this work. More details at
     http://www.quantum-espresso.org/quote

     Parallel version (MPI), running on     1 processors

     MPI processes distributed on     1 nodes

     reading grid info from file Chain2atoms.dyn0    
  reading force constants from file Chain2atoms.dyn1
 macroscopic fields = T
   1.18738   0.00000   0.00000
   0.00000   1.02041   0.00000
   0.00000   0.00000   1.02041
  na=            1
   7.37665   0.00000   0.00000
   0.00000   0.45610   0.00000
   0.00000   0.00000   0.45610
  na=            2
  -7.37143   0.00000   0.00000
   0.00000  -0.45625   0.00000
   0.00000   0.00000  -0.45625
  nqs=            1
 q=   0.00000000  0.00000000  0.00000000
  reading force constants from file Chain2atoms.dyn2
  nqs=            2
 q=   0.12500000  0.00000000  0.00000000
 q=  -0.12500000  0.00000000  0.00000000
  reading force constants from file Chain2atoms.dyn3
  nqs=            2
 q=   0.25000000  0.00000000  0.00000000
 q=  -0.25000000  0.00000000  0.00000000
  reading force constants from file Chain2atoms.dyn4
  nqs=            2
 q=   0.37500000  0.00000000  0.00000000
 q=  -0.37500000  0.00000000  0.00000000
  reading force constants from file Chain2atoms.dyn5
  nqs=            1
 q=  -0.50000000  0.00000000  0.00000000

      q-space grid ok, #points =    8

      fft-check success (sum of imaginary terms < 10^-12)
 
     Q2R          :      0.01s CPU      0.02s WALL

 
   This run was terminated on:  14:43:14   7Dec2021            

=------------------------------------------------------------------------------=
   JOB DONE.
=------------------------------------------------------------------------------=
