
     Program PWSCF v.6.7MaX starts on 18Feb2022 at 11:33: 0 

     This program is part of the open-source Quantum ESPRESSO suite
     for quantum simulation of materials; please cite
         "P. Giannozzi et al., J. Phys.:Condens. Matter 21 395502 (2009);
         "P. Giannozzi et al., J. Phys.:Condens. Matter 29 465901 (2017);
          URL http://www.quantum-espresso.org", 
     in publications or presentations arising from this work. More details at
     http://www.quantum-espresso.org/quote

     Parallel version (MPI), running on    20 processors

     MPI processes distributed on     1 nodes
     R & G space division:  proc/nbgrp/npool/nimage =      20
     Waiting for input...
     Reading input from standard input

     Current dimensions of program PWSCF are:
     Max number of different atomic species (ntypx) = 10
     Max number of k-points (npk) =  40000
     Max angular momentum in pseudopotentials (lmaxx) =  3
     file C.pbe-rrkjus.UPF: wavefunction(s)  2S 2P renormalized
     Message from routine set_cutoff:
     ecutrho < 4*ecutwfc, are you sure?

     Subspace diagonalization in iterative solution of the eigenvalue problem:
     one sub-group per band group will be used
     scalapack distributed-memory algorithm (size of sub-group:  4*  4 procs)

 
     Parallelization info
     --------------------
     sticks:   dense  smooth     PW     G-vecs:    dense   smooth      PW
     Min          20      20      8                 2643     2643     660
     Max          23      23      9                 2654     2654     683
     Sum         409     409    163                52949    52949   13511
 


     bravais-lattice index     =            4
     lattice parameter (alat)  =       4.6531  a.u.
     unit-cell volume          =     708.6620 (a.u.)^3
     number of atoms/cell      =            2
     number of atomic types    =            1
     number of electrons       =         8.00
     number of Kohn-Sham states=            8
     kinetic-energy cutoff     =      90.0000  Ry
     charge density cutoff     =     270.0000  Ry
     scf convergence threshold =      1.0E-08
     mixing beta               =       0.5000
     number of iterations used =            8  local-TF  mixing
     energy convergence thresh.=      1.0E-04
     force convergence thresh. =      1.0E-04
     press convergence thresh. =      5.0E-01
     Exchange-correlation=  SLA  PW   PBE  PBE
                           (   1   4   3   4   0   0   0)
     nstep                     =           50


     celldm(1)=   4.653073  celldm(2)=   0.000000  celldm(3)=   8.122487
     celldm(4)=   0.000000  celldm(5)=   0.000000  celldm(6)=   0.000000

     crystal axes: (cart. coord. in units of alat)
               a(1) = (   1.000000   0.000000   0.000000 )  
               a(2) = (  -0.500000   0.866025   0.000000 )  
               a(3) = (   0.000000   0.000000   8.122487 )  

     reciprocal axes: (cart. coord. in units 2 pi/alat)
               b(1) = (  1.000000  0.577350  0.000000 )  
               b(2) = (  0.000000  1.154701  0.000000 )  
               b(3) = (  0.000000  0.000000  0.123115 )  


     PseudoPot. # 1 for C  read from file:
     ../Pseudo/C.pbe-rrkjus.UPF
     MD5 check sum: 00fb224312de0c5b6853bd333518df6f
     Pseudo is Ultrasoft, Zval =  4.0
     Generated by new atomic code, or converted to UPF format
     Using radial grid of  627 points,  4 beta functions with: 
                l(1) =   0
                l(2) =   0
                l(3) =   1
                l(4) =   1
     Q(r) pseudized with 0 coefficients 


     atomic species   valence    mass     pseudopotential
        C              4.00    12.01070     C ( 1.00)

     24 Sym. Ops., with inversion, found



   Cartesian axes

     site n.     atom                  positions (alat units)
         1           C   tau(   1) = (   0.0000000   0.5773503   4.0612436  )
         2           C   tau(   2) = (   0.5000000   0.2886751   4.0612436  )

     number of k points=    19  Methfessel-Paxton smearing, width (Ry)=  0.0200
                       cart. coord. in units 2pi/alat
        k(    1) = (   0.0000000   0.0000000   0.0000000), wk =   0.0138889
        k(    2) = (   0.0000000   0.0962250   0.0000000), wk =   0.0833333
        k(    3) = (   0.0000000   0.1924501   0.0000000), wk =   0.0833333
        k(    4) = (   0.0000000   0.2886751   0.0000000), wk =   0.0833333
        k(    5) = (   0.0000000   0.3849002   0.0000000), wk =   0.0833333
        k(    6) = (   0.0000000   0.4811252   0.0000000), wk =   0.0833333
        k(    7) = (   0.0000000  -0.5773503   0.0000000), wk =   0.0416667
        k(    8) = (   0.0833333   0.1443376   0.0000000), wk =   0.0833333
        k(    9) = (   0.0833333   0.2405626   0.0000000), wk =   0.1666667
        k(   10) = (   0.0833333   0.3367877   0.0000000), wk =   0.1666667
        k(   11) = (   0.0833333   0.4330127   0.0000000), wk =   0.1666667
        k(   12) = (   0.0833333   0.5292377   0.0000000), wk =   0.1666667
        k(   13) = (   0.1666667   0.2886751   0.0000000), wk =   0.0833333
        k(   14) = (   0.1666667   0.3849002   0.0000000), wk =   0.1666667
        k(   15) = (   0.1666667   0.4811252   0.0000000), wk =   0.1666667
        k(   16) = (   0.1666667   0.5773503   0.0000000), wk =   0.0833333
        k(   17) = (   0.2500000   0.4330127   0.0000000), wk =   0.0833333
        k(   18) = (   0.2500000   0.5292377   0.0000000), wk =   0.1666667
        k(   19) = (   0.3333333   0.5773503   0.0000000), wk =   0.0277778

     Dense  grid:    52949 G-vectors     FFT dimensions: (  25,  25, 200)

     Estimated max dynamical RAM per process >       5.68 MB

     Estimated total dynamical RAM >     113.62 MB

     Initial potential from superposition of free atoms

     starting charge    7.99989, renormalised to    8.00000

     negative rho (up, down):  5.374E-05 0.000E+00
     Starting wfcs are    8 randomized atomic wfcs

     total cpu time spent up to now is        0.6 secs

     Self-consistent Calculation

     iteration #  1     ecut=    90.00 Ry     beta= 0.50
     Davidson diagonalization with overlap
     ethr =  1.00E-02,  avg # of iterations =  6.4

     negative rho (up, down):  1.152E-08 0.000E+00

     total cpu time spent up to now is        2.3 secs

     total energy              =     -22.83221259 Ry
     estimated scf accuracy    <       0.20041019 Ry

     iteration #  2     ecut=    90.00 Ry     beta= 0.50
     Davidson diagonalization with overlap
     ethr =  2.51E-03,  avg # of iterations =  1.0

     total cpu time spent up to now is        2.9 secs

     total energy              =     -22.78343254 Ry
     estimated scf accuracy    <       0.09511588 Ry

     iteration #  3     ecut=    90.00 Ry     beta= 0.50
     Davidson diagonalization with overlap
     ethr =  1.19E-03,  avg # of iterations =  3.5

     total cpu time spent up to now is        3.7 secs

     total energy              =     -22.79327495 Ry
     estimated scf accuracy    <       0.00865354 Ry

     iteration #  4     ecut=    90.00 Ry     beta= 0.50
     Davidson diagonalization with overlap
     ethr =  1.08E-04,  avg # of iterations =  7.9

     total cpu time spent up to now is        5.1 secs

     total energy              =     -22.79209842 Ry
     estimated scf accuracy    <       0.00539203 Ry

     iteration #  5     ecut=    90.00 Ry     beta= 0.50
     Davidson diagonalization with overlap
     ethr =  6.74E-05,  avg # of iterations =  1.7

     negative rho (up, down):  3.600E-03 0.000E+00

     total cpu time spent up to now is        5.7 secs

     total energy              =     -22.79108015 Ry
     estimated scf accuracy    <       0.00299207 Ry

     iteration #  6     ecut=    90.00 Ry     beta= 0.50
     Davidson diagonalization with overlap
     ethr =  3.74E-05,  avg # of iterations =  5.5

     negative rho (up, down):  5.817E-03 0.000E+00

     total cpu time spent up to now is        6.8 secs

     total energy              =     -22.79160250 Ry
     estimated scf accuracy    <       0.00117417 Ry

     iteration #  7     ecut=    90.00 Ry     beta= 0.50
     Davidson diagonalization with overlap
     ethr =  1.47E-05,  avg # of iterations =  4.5

     negative rho (up, down):  9.712E-03 0.000E+00

     total cpu time spent up to now is        7.9 secs

     total energy              =     -22.79099620 Ry
     estimated scf accuracy    <       0.00250966 Ry

     iteration #  8     ecut=    90.00 Ry     beta= 0.50
     Davidson diagonalization with overlap
     ethr =  1.47E-05,  avg # of iterations =  5.9

     negative rho (up, down):  4.428E-03 0.000E+00

     total cpu time spent up to now is        9.1 secs

     total energy              =     -22.79085630 Ry
     estimated scf accuracy    <       0.00043621 Ry

     iteration #  9     ecut=    90.00 Ry     beta= 0.50
     Davidson diagonalization with overlap
     ethr =  5.45E-06,  avg # of iterations =  6.4

     negative rho (up, down):  1.850E-03 0.000E+00

     total cpu time spent up to now is       10.4 secs

     total energy              =     -22.79085818 Ry
     estimated scf accuracy    <       0.00007364 Ry

     iteration # 10     ecut=    90.00 Ry     beta= 0.50
     Davidson diagonalization with overlap
     ethr =  9.20E-07,  avg # of iterations =  4.8

     negative rho (up, down):  3.239E-04 0.000E+00

     total cpu time spent up to now is       11.6 secs

     total energy              =     -22.79086108 Ry
     estimated scf accuracy    <       0.00001013 Ry

     iteration # 11     ecut=    90.00 Ry     beta= 0.50
     Davidson diagonalization with overlap
     c_bands:  1 eigenvalues not converged
     ethr =  1.27E-07,  avg # of iterations =  8.2

     negative rho (up, down):  1.054E-04 0.000E+00

     total cpu time spent up to now is       13.4 secs

     total energy              =     -22.79086123 Ry
     estimated scf accuracy    <       0.00000037 Ry

     iteration # 12     ecut=    90.00 Ry     beta= 0.50
     Davidson diagonalization with overlap
     ethr =  4.65E-09,  avg # of iterations =  4.6

     negative rho (up, down):  7.147E-05 0.000E+00

     total cpu time spent up to now is       14.7 secs

     total energy              =     -22.79086151 Ry
     estimated scf accuracy    <       0.00000010 Ry

     iteration # 13     ecut=    90.00 Ry     beta= 0.50
     Davidson diagonalization with overlap
     ethr =  1.24E-09,  avg # of iterations =  2.2

     negative rho (up, down):  6.980E-05 0.000E+00

     total cpu time spent up to now is       15.4 secs

     End of self-consistent calculation

          k = 0.0000 0.0000 0.0000 ( 10069 PWs)   bands (ev):

   -21.8705  -9.9836  -5.4201  -5.4201   0.8988   1.6460   1.8491   2.8096

          k = 0.0000 0.0962 0.0000 ( 10121 PWs)   bands (ev):

   -21.7064  -9.7872  -6.0673  -5.7587   1.1223   1.8727   2.0780   3.0363

          k = 0.0000 0.1925 0.0000 ( 10132 PWs)   bands (ev):

   -21.2159  -9.2033  -7.6983  -6.5515   1.7927   2.5516   2.7647   3.7151

          k = 0.0000 0.2887 0.0000 ( 10194 PWs)   bands (ev):

   -20.4048  -9.7912  -8.2511  -7.4316   2.9078   3.6695   3.9090   4.7653

          k = 0.0000 0.3849 0.0000 ( 10216 PWs)   bands (ev):

   -19.2853 -11.9913  -8.1653  -6.9810   2.5737   4.4553   5.2783   5.4042

          k = 0.0000 0.4811 0.0000 ( 10228 PWs)   bands (ev):

   -17.8880 -14.0906  -8.6384  -5.5562   0.4360   5.1629   6.4724   7.2876

          k = 0.0000-0.5774 0.0000 ( 10232 PWs)   bands (ev):

   -16.6176 -15.6030  -8.8008  -4.7104  -0.6633   5.0871   8.7795   8.9304

          k = 0.0833 0.1443 0.0000 ( 10131 PWs)   bands (ev):

   -21.3791  -9.3970  -7.0962  -6.4361   1.5695   2.3256   2.5358   3.4892

          k = 0.0833 0.2406 0.0000 ( 10192 PWs)   bands (ev):

   -20.7283  -8.8003  -8.6277  -7.4338   2.4631   3.2284   3.4516   4.3915

          k = 0.0833 0.3368 0.0000 ( 10209 PWs)   bands (ev):

   -19.7629 -10.8693  -8.3196  -7.5101   3.5863   3.7989   4.6008   4.8245

          k = 0.0833 0.4330 0.0000 ( 10220 PWs)   bands (ev):

   -18.5015 -12.9902  -8.9542  -6.1285   1.3842   5.5479   6.0153   6.3810

          k = 0.0833 0.5292 0.0000 ( 10235 PWs)   bands (ev):

   -17.0191 -14.9332  -9.2826  -4.8173  -0.3867   5.8205   7.7725   8.5683

          k = 0.1667 0.2887 0.0000 ( 10239 PWs)   bands (ev):

   -19.9232 -10.1256  -8.7951  -7.6891   3.5785   4.0438   4.3514   4.5963

          k = 0.1667 0.3849 0.0000 ( 10251 PWs)   bands (ev):

   -18.8146 -11.8505  -9.8498  -6.4342   2.0939   5.1308   5.9052   6.1981

          k = 0.1667 0.4811 0.0000 ( 10259 PWs)   bands (ev):

   -17.4373 -13.7614 -10.4243  -5.0055   0.1794   7.0918   7.7260   7.8206

          k = 0.1667 0.5774 0.0000 ( 10243 PWs)   bands (ev):

   -16.1970 -15.2018 -10.6087  -4.1115  -0.8901   7.6195   9.2814   9.3406

          k = 0.2500 0.4330 0.0000 ( 10263 PWs)   bands (ev):

   -17.5854 -12.8811 -11.3345  -5.0897   0.4775   6.8833   7.5384   8.0272

          k = 0.2500 0.5292 0.0000 ( 10249 PWs)   bands (ev):

   -16.1608 -14.3042 -12.0406  -3.7020  -1.0446   8.5498   8.9796   9.8745

          k = 0.3333 0.5774 0.0000 ( 10245 PWs)   bands (ev):

   -14.9414 -14.9414 -12.9430  -2.3443  -2.3443   8.2915  10.5468  10.5468

     the Fermi energy is    -2.3443 ev

!    total energy              =     -22.79086152 Ry
     estimated scf accuracy    <          3.0E-10 Ry
     smearing contrib. (-TS)   =      -0.00015672 Ry
     internal energy E=F+TS    =     -22.79070481 Ry

     The total energy is F=E-TS. E is the sum of the following terms:
     one-electron contribution =    -224.93140841 Ry
     hartree contribution      =     113.65377080 Ry
     xc contribution           =      -7.02173191 Ry
     ewald contribution        =      95.50866470 Ry

     convergence has been achieved in  13 iterations

     Forces acting on atoms (cartesian axes, Ry/au):

     atom    1 type  1   force =     0.00000000    0.00000000    0.00000000
     atom    2 type  1   force =     0.00000000    0.00000000    0.00000000

     Total force =     0.000000     Total SCF correction =     0.000000


     Computing stress (Cartesian axis) and pressure

          total   stress  (Ry/bohr**3)                   (kbar)     P=        0.11
   0.00000116   0.00000000   0.00000000            0.17        0.00        0.00
   0.00000000   0.00000116   0.00000000            0.00        0.17        0.00
   0.00000000   0.00000000   0.00000000            0.00        0.00        0.00


     BFGS Geometry Optimization
     Energy error            =      0.0E+00
     Gradient error          =      1.4E-25
     Cell gradient error     =      1.2E-06


     bfgs converged in   1 scf cycles and   0 bfgs steps
     (criteria: energy <  1.0E-04 Ry, force <  1.0E-04Ry/Bohr, cell <  5.0E-01kbar)

     End of BFGS Geometry Optimization

     Final enthalpy =     -22.7908615247 Ry
Begin final coordinates
     new unit-cell volume =    708.66202 a.u.^3 (   105.01288 Ang^3 )
     density =      0.37984 g/cm^3

CELL_PARAMETERS (alat=  4.65307264)
   1.000000000   0.000000000   0.000000000
  -0.500000000   0.866025404   0.000000000
   0.000000000   0.000000000   8.122487106

ATOMIC_POSITIONS (crystal)
C             0.3333333330        0.6666666660        0.5000000000    1   1   0
C             0.6666666660        0.3333333330        0.5000000000    1   1   0
End final coordinates



     Writing output data file ./2Dgraphene.save/

     Final scf calculation at the relaxed structure.
     The G-vectors are recalculated for the final unit cell
     Results may differ from those at the preceding step.
 
     Parallelization info
     --------------------
     sticks:   dense  smooth     PW     G-vecs:    dense   smooth      PW
     Min          20      20      8                 2643     2643     660
     Max          23      23      9                 2654     2654     683
     Sum         409     409    163                52949    52949   13511
 


     bravais-lattice index     =            4
     lattice parameter (alat)  =       4.6531  a.u.
     unit-cell volume          =     708.6620 (a.u.)^3
     number of atoms/cell      =            2
     number of atomic types    =            1
     number of electrons       =         8.00
     number of Kohn-Sham states=            8
     kinetic-energy cutoff     =      90.0000  Ry
     charge density cutoff     =     270.0000  Ry
     scf convergence threshold =      1.0E-08
     mixing beta               =       0.5000
     number of iterations used =            8  local-TF  mixing
     press convergence thresh. =      5.0E-01
     Exchange-correlation=  SLA  PW   PBE  PBE
                           (   1   4   3   4   0   0   0)

     celldm(1)=   4.653073  celldm(2)=   0.000000  celldm(3)=   8.122487
     celldm(4)=   0.000000  celldm(5)=   0.000000  celldm(6)=   0.000000

     crystal axes: (cart. coord. in units of alat)
               a(1) = (   1.000000   0.000000   0.000000 )  
               a(2) = (  -0.500000   0.866025   0.000000 )  
               a(3) = (   0.000000   0.000000   8.122487 )  

     reciprocal axes: (cart. coord. in units 2 pi/alat)
               b(1) = (  1.000000  0.577350  0.000000 )  
               b(2) = (  0.000000  1.154701  0.000000 )  
               b(3) = (  0.000000  0.000000  0.123115 )  


     PseudoPot. # 1 for C  read from file:
     ../Pseudo/C.pbe-rrkjus.UPF
     MD5 check sum: 00fb224312de0c5b6853bd333518df6f
     Pseudo is Ultrasoft, Zval =  4.0
     Generated by new atomic code, or converted to UPF format
     Using radial grid of  627 points,  4 beta functions with: 
                l(1) =   0
                l(2) =   0
                l(3) =   1
                l(4) =   1
     Q(r) pseudized with 0 coefficients 


     atomic species   valence    mass     pseudopotential
        C              4.00    12.01070     C ( 1.00)

     24 Sym. Ops., with inversion, found



   Cartesian axes

     site n.     atom                  positions (alat units)
         1           C   tau(   1) = (   0.0000000   0.5773503   4.0612436  )
         2           C   tau(   2) = (   0.5000000   0.2886751   4.0612436  )

     number of k points=    19  Methfessel-Paxton smearing, width (Ry)=  0.0200
                       cart. coord. in units 2pi/alat
        k(    1) = (   0.0000000   0.0000000   0.0000000), wk =   0.0138889
        k(    2) = (   0.0000000   0.0962250   0.0000000), wk =   0.0833333
        k(    3) = (   0.0000000   0.1924501   0.0000000), wk =   0.0833333
        k(    4) = (   0.0000000   0.2886751   0.0000000), wk =   0.0833333
        k(    5) = (   0.0000000   0.3849002   0.0000000), wk =   0.0833333
        k(    6) = (   0.0000000   0.4811252   0.0000000), wk =   0.0833333
        k(    7) = (   0.0000000  -0.5773503   0.0000000), wk =   0.0416667
        k(    8) = (   0.0833333   0.1443376   0.0000000), wk =   0.0833333
        k(    9) = (   0.0833333   0.2405626   0.0000000), wk =   0.1666667
        k(   10) = (   0.0833333   0.3367877   0.0000000), wk =   0.1666667
        k(   11) = (   0.0833333   0.4330127   0.0000000), wk =   0.1666667
        k(   12) = (   0.0833333   0.5292377   0.0000000), wk =   0.1666667
        k(   13) = (   0.1666667   0.2886751   0.0000000), wk =   0.0833333
        k(   14) = (   0.1666667   0.3849002   0.0000000), wk =   0.1666667
        k(   15) = (   0.1666667   0.4811252   0.0000000), wk =   0.1666667
        k(   16) = (   0.1666667   0.5773503   0.0000000), wk =   0.0833333
        k(   17) = (   0.2500000   0.4330127   0.0000000), wk =   0.0833333
        k(   18) = (   0.2500000   0.5292377   0.0000000), wk =   0.1666667
        k(   19) = (   0.3333333   0.5773503   0.0000000), wk =   0.0277778

     Dense  grid:    52949 G-vectors     FFT dimensions: (  25,  25, 200)

     Estimated max dynamical RAM per process >       5.70 MB

     Estimated total dynamical RAM >     114.03 MB

     Initial potential from superposition of free atoms

     starting charge    7.99989, renormalised to    8.00000

     negative rho (up, down):  5.374E-05 0.000E+00
     Starting wfcs are    8 randomized atomic wfcs

     total cpu time spent up to now is       16.1 secs

     Self-consistent Calculation

     iteration #  1     ecut=    90.00 Ry     beta= 0.50
     Davidson diagonalization with overlap
     c_bands:  1 eigenvalues not converged
     c_bands:  1 eigenvalues not converged
     c_bands:  1 eigenvalues not converged
     c_bands:  1 eigenvalues not converged
     c_bands:  1 eigenvalues not converged
     c_bands:  1 eigenvalues not converged
     c_bands:  1 eigenvalues not converged
     c_bands:  1 eigenvalues not converged
     ethr =  1.00E-06,  avg # of iterations = 18.4

     negative rho (up, down):  1.230E-08 0.000E+00

     total cpu time spent up to now is       19.8 secs

     total energy              =     -22.83084538 Ry
     estimated scf accuracy    <       0.20712425 Ry

     iteration #  2     ecut=    90.00 Ry     beta= 0.50
     Davidson diagonalization with overlap
     ethr =  2.59E-03,  avg # of iterations =  1.0

     total cpu time spent up to now is       20.3 secs

     total energy              =     -22.78472201 Ry
     estimated scf accuracy    <       0.09386680 Ry

     iteration #  3     ecut=    90.00 Ry     beta= 0.50
     Davidson diagonalization with overlap
     ethr =  1.17E-03,  avg # of iterations =  2.1

     total cpu time spent up to now is       21.0 secs

     total energy              =     -22.79220664 Ry
     estimated scf accuracy    <       0.00869000 Ry

     iteration #  4     ecut=    90.00 Ry     beta= 0.50
     Davidson diagonalization with overlap
     ethr =  1.09E-04,  avg # of iterations =  7.3

     total cpu time spent up to now is       22.2 secs

     total energy              =     -22.79128608 Ry
     estimated scf accuracy    <       0.00329430 Ry

     iteration #  5     ecut=    90.00 Ry     beta= 0.50
     Davidson diagonalization with overlap
     ethr =  4.12E-05,  avg # of iterations =  5.6

     negative rho (up, down):  2.788E-03 0.000E+00

     total cpu time spent up to now is       23.3 secs

     total energy              =     -22.79138920 Ry
     estimated scf accuracy    <       0.00200748 Ry

     iteration #  6     ecut=    90.00 Ry     beta= 0.50
     Davidson diagonalization with overlap
     ethr =  2.51E-05,  avg # of iterations =  4.1

     negative rho (up, down):  8.059E-03 0.000E+00

     total cpu time spent up to now is       24.3 secs

     total energy              =     -22.79113240 Ry
     estimated scf accuracy    <       0.00127315 Ry

     iteration #  7     ecut=    90.00 Ry     beta= 0.50
     Davidson diagonalization with overlap
     ethr =  1.59E-05,  avg # of iterations =  4.8

     negative rho (up, down):  9.484E-03 0.000E+00

     total cpu time spent up to now is       25.4 secs

     total energy              =     -22.79101356 Ry
     estimated scf accuracy    <       0.00057323 Ry

     iteration #  8     ecut=    90.00 Ry     beta= 0.50
     Davidson diagonalization with overlap
     ethr =  7.17E-06,  avg # of iterations =  6.2

     negative rho (up, down):  3.427E-03 0.000E+00

     total cpu time spent up to now is       26.6 secs

     total energy              =     -22.79084836 Ry
     estimated scf accuracy    <       0.00028230 Ry

     iteration #  9     ecut=    90.00 Ry     beta= 0.50
     Davidson diagonalization with overlap
     ethr =  3.53E-06,  avg # of iterations =  7.5

     negative rho (up, down):  1.746E-03 0.000E+00

     total cpu time spent up to now is       28.1 secs

     total energy              =     -22.79086164 Ry
     estimated scf accuracy    <       0.00003720 Ry

     iteration # 10     ecut=    90.00 Ry     beta= 0.50
     Davidson diagonalization with overlap
     ethr =  4.65E-07,  avg # of iterations =  6.2

     negative rho (up, down):  3.093E-04 0.000E+00

     total cpu time spent up to now is       29.6 secs

     total energy              =     -22.79086031 Ry
     estimated scf accuracy    <       0.00001321 Ry

     iteration # 11     ecut=    90.00 Ry     beta= 0.50
     Davidson diagonalization with overlap
     ethr =  1.65E-07,  avg # of iterations =  7.6

     negative rho (up, down):  1.599E-04 0.000E+00

     total cpu time spent up to now is       31.1 secs

     total energy              =     -22.79086153 Ry
     estimated scf accuracy    <       0.00000016 Ry

     iteration # 12     ecut=    90.00 Ry     beta= 0.50
     Davidson diagonalization with overlap
     ethr =  1.94E-09,  avg # of iterations =  4.5

     negative rho (up, down):  7.188E-05 0.000E+00

     total cpu time spent up to now is       32.4 secs

     total energy              =     -22.79086152 Ry
     estimated scf accuracy    <       0.00000005 Ry

     iteration # 13     ecut=    90.00 Ry     beta= 0.50
     Davidson diagonalization with overlap
     ethr =  6.03E-10,  avg # of iterations =  3.8

     negative rho (up, down):  6.981E-05 0.000E+00

     total cpu time spent up to now is       33.3 secs

     End of self-consistent calculation

          k = 0.0000 0.0000 0.0000 ( 10069 PWs)   bands (ev):

   -21.8703  -9.9836  -5.4200  -5.4200   0.8989   1.6461   1.8490   2.8094

          k = 0.0000 0.0962 0.0000 ( 10121 PWs)   bands (ev):

   -21.7063  -9.7872  -6.0671  -5.7585   1.1223   1.8728   2.0779   3.0361

          k = 0.0000 0.1925 0.0000 ( 10132 PWs)   bands (ev):

   -21.2158  -9.2033  -7.6982  -6.5513   1.7928   2.5517   2.7647   3.7148

          k = 0.0000 0.2887 0.0000 ( 10194 PWs)   bands (ev):

   -20.4047  -9.7911  -8.2511  -7.4314   2.9079   3.6696   3.9090   4.7647

          k = 0.0000 0.3849 0.0000 ( 10216 PWs)   bands (ev):

   -19.2852 -11.9911  -8.1651  -6.9810   2.5737   4.4553   5.2783   5.4008

          k = 0.0000 0.4811 0.0000 ( 10228 PWs)   bands (ev):

   -17.8879 -14.0905  -8.6382  -5.5562   0.4360   5.1630   6.4723   7.2875

          k = 0.0000-0.5774 0.0000 ( 10232 PWs)   bands (ev):

   -16.6174 -15.6029  -8.8006  -4.7104  -0.6632   5.0872   8.7794   8.9304

          k = 0.0833 0.1443 0.0000 ( 10131 PWs)   bands (ev):

   -21.3790  -9.3969  -7.0960  -6.4359   1.5695   2.3257   2.5358   3.4889

          k = 0.0833 0.2406 0.0000 ( 10192 PWs)   bands (ev):

   -20.7282  -8.8001  -8.6277  -7.4336   2.4632   3.2285   3.4515   4.3912

          k = 0.0833 0.3368 0.0000 ( 10209 PWs)   bands (ev):

   -19.7628 -10.8692  -8.3195  -7.5101   3.5864   3.7990   4.6006   4.8245

          k = 0.0833 0.4330 0.0000 ( 10220 PWs)   bands (ev):

   -18.5014 -12.9901  -8.9541  -6.1285   1.3842   5.5479   6.0157   6.3810

          k = 0.0833 0.5292 0.0000 ( 10235 PWs)   bands (ev):

   -17.0190 -14.9331  -9.2824  -4.8173  -0.3867   5.8206   7.7726   8.5681

          k = 0.1667 0.2887 0.0000 ( 10239 PWs)   bands (ev):

   -19.9231 -10.1254  -8.7950  -7.6891   3.5786   4.0439   4.3515   4.5963

          k = 0.1667 0.3849 0.0000 ( 10251 PWs)   bands (ev):

   -18.8144 -11.8503  -9.8497  -6.4342   2.0940   5.1309   5.9053   6.1980

          k = 0.1667 0.4811 0.0000 ( 10259 PWs)   bands (ev):

   -17.4372 -13.7612 -10.4241  -5.0054   0.1795   7.0918   7.7261   7.8206

          k = 0.1667 0.5774 0.0000 ( 10243 PWs)   bands (ev):

   -16.1968 -15.2017 -10.6085  -4.1114  -0.8900   7.6196   9.2813   9.3404

          k = 0.2500 0.4330 0.0000 ( 10263 PWs)   bands (ev):

   -17.5853 -12.8810 -11.3343  -5.0896   0.4775   6.8833   7.5383   8.0272

          k = 0.2500 0.5292 0.0000 ( 10249 PWs)   bands (ev):

   -16.1607 -14.3040 -12.0404  -3.7020  -1.0445   8.5498   8.9797   9.8749

          k = 0.3333 0.5774 0.0000 ( 10245 PWs)   bands (ev):

   -14.9413 -14.9413 -12.9428  -2.3442  -2.3442   8.2914  10.5468  10.5468

     the Fermi energy is    -2.3442 ev

!    total energy              =     -22.79086152 Ry
     estimated scf accuracy    <          3.4E-09 Ry
     smearing contrib. (-TS)   =      -0.00015672 Ry
     internal energy E=F+TS    =     -22.79070481 Ry

     The total energy is F=E-TS. E is the sum of the following terms:
     one-electron contribution =    -224.93128811 Ry
     hartree contribution      =     113.65363277 Ry
     xc contribution           =      -7.02171417 Ry
     ewald contribution        =      95.50866470 Ry

     convergence has been achieved in  13 iterations

     Forces acting on atoms (cartesian axes, Ry/au):

     atom    1 type  1   force =     0.00000000    0.00000000    0.00000000
     atom    2 type  1   force =     0.00000000    0.00000000    0.00000000

     Total force =     0.000000     Total SCF correction =     0.000000


     Computing stress (Cartesian axis) and pressure

          total   stress  (Ry/bohr**3)                   (kbar)     P=        0.10
   0.00000113   0.00000000   0.00000000            0.17        0.00        0.00
   0.00000000   0.00000113   0.00000000            0.00        0.17        0.00
   0.00000000   0.00000000  -0.00000022            0.00        0.00       -0.03


     Writing output data file ./2Dgraphene.save/
 
     init_run     :      0.75s CPU      0.87s WALL (       2 calls)
     electrons    :     31.28s CPU     32.06s WALL (       2 calls)
     forces       :      0.13s CPU      0.14s WALL (       2 calls)
     stress       :      0.35s CPU      0.36s WALL (       2 calls)

     Called by init_run:
     wfcinit      :      0.39s CPU      0.40s WALL (       2 calls)
     potinit      :      0.16s CPU      0.17s WALL (       2 calls)
     hinit0       :      0.12s CPU      0.19s WALL (       2 calls)

     Called by electrons:
     c_bands      :     25.19s CPU     25.73s WALL (      26 calls)
     sum_band     :      1.83s CPU      1.95s WALL (      26 calls)
     v_of_rho     :      0.28s CPU      0.30s WALL (      28 calls)
     newd         :      0.15s CPU      0.16s WALL (      28 calls)
     mix_rho      :      3.84s CPU      3.93s WALL (      26 calls)

     Called by c_bands:
     init_us_2    :      0.25s CPU      0.26s WALL (    1102 calls)
     cegterg      :     24.62s CPU     25.10s WALL (     494 calls)

     Called by *egterg:
     cdiaghg      :      9.06s CPU      9.16s WALL (    3187 calls)
     h_psi        :     10.34s CPU     10.64s WALL (    3225 calls)
     s_psi        :      0.11s CPU      0.11s WALL (    3225 calls)
     g_psi        :      0.08s CPU      0.08s WALL (    2693 calls)

     Called by h_psi:
     h_psi:calbec :      0.70s CPU      0.73s WALL (    3225 calls)
     vloc_psi     :      9.39s CPU      9.66s WALL (    3225 calls)
     add_vuspsi   :      0.15s CPU      0.16s WALL (    3225 calls)

     General routines
     calbec       :      0.86s CPU      0.89s WALL (    3909 calls)
     fft          :      0.27s CPU      0.34s WALL (     324 calls)
     ffts         :      2.17s CPU      2.20s WALL (    4096 calls)
     fftw         :      9.94s CPU     10.24s WALL (   31166 calls)
 
     Parallel routines
     fft_scatt_xy :      0.93s CPU      0.96s WALL (   35586 calls)
     fft_scatt_yz :      5.37s CPU      5.51s WALL (   35586 calls)
 
     PWSCF        :     32.70s CPU     33.67s WALL

 
   This run was terminated on:  11:33:34  18Feb2022            

=------------------------------------------------------------------------------=
   JOB DONE.
=------------------------------------------------------------------------------=
