
     Program PHONON v.6.7MaX starts on  8Mar2022 at 11:48:39 

     This program is part of the open-source Quantum ESPRESSO suite
     for quantum simulation of materials; please cite
         "P. Giannozzi et al., J. Phys.:Condens. Matter 21 395502 (2009);
         "P. Giannozzi et al., J. Phys.:Condens. Matter 29 465901 (2017);
          URL http://www.quantum-espresso.org", 
     in publications or presentations arising from this work. More details at
     http://www.quantum-espresso.org/quote

     Parallel version (MPI), running on    30 processors

     MPI processes distributed on     1 nodes
     R & G space division:  proc/nbgrp/npool/nimage =      30
     Waiting for input...
     Reading input from standard input

     Reading xml data from directory:

     ./6AGNR.save/
     Message from routine qexsd_readschema :
     input info not found or not readable in xml file
     file C.pbe-rrkjus.UPF: wavefunction(s)  2S 2P renormalized
     file H.pbe-rrkjus.UPF: wavefunction(s)  1S renormalized

     IMPORTANT: XC functional enforced from input :
     Exchange-correlation= PBE
                           (   1   4   3   4   0   0   0)
     Any further DFT definition will be discarded
     Please, verify this is what you really want

 
     Parallelization info
     --------------------
     sticks:   dense  smooth     PW     G-vecs:    dense   smooth      PW
     Min         185     185     66                18305    18305    3968
     Max         186     186     67                18310    18310    3977
     Sum        5565    5565   1999               549225   549225  119167
 

     negative rho (up, down):  5.492E-04 0.000E+00
     Reading collected, re-writing distributed wavefunctions


     Dynamical matrices for ( 5, 1, 1)  uniform grid of q-points
     (   3 q-points):
       N         xq(1)         xq(2)         xq(3) 
       1   0.000000000   0.000000000   0.000000000
       2   0.200000000   0.000000000   0.000000000
       3   0.400000000   0.000000000   0.000000000
Eigenvectors exchange needed   11   46

     Calculation of q =    0.0000000   0.0000000   0.0000000

                                                                                

     bravais-lattice index     =            8
     lattice parameter (alat)  =       8.1351  a.u.
     unit-cell volume          =    7331.0274 (a.u.)^3
     number of atoms/cell      =           16
     number of atomic types    =            2
     kinetic-energy cut-off    =      90.0000  Ry
     charge density cut-off    =     270.0000  Ry
     convergence threshold     =      1.0E-18
     beta                      =       0.7000
     number of iterations used =            4
     Exchange-correlation= PBE
                           (   1   4   3   4   0   0   0)


     celldm(1)=    8.13507  celldm(2)=    3.90775  celldm(3)=    3.48461
     celldm(4)=    0.00000  celldm(5)=    0.00000  celldm(6)=    0.00000

     crystal axes: (cart. coord. in units of alat)
               a(1) = (  1.0000  0.0000  0.0000 )  
               a(2) = (  0.0000  3.9078  0.0000 )  
               a(3) = (  0.0000  0.0000  3.4846 )  

     reciprocal axes: (cart. coord. in units 2 pi/alat)
               b(1) = (  1.0000  0.0000  0.0000 )  
               b(2) = (  0.0000  0.2559  0.0000 )  
               b(3) = (  0.0000  0.0000  0.2870 )  


     Atoms inside the unit cell: 

     Cartesian axes

     site n.  atom      mass           positions (alat units)
        1     C   12.0107   tau(    1) = (    0.65958    1.24703    1.74231  )
        2     C   12.0107   tau(    2) = (    0.83166    1.52508    1.74231  )
        3     C   12.0107   tau(    3) = (    0.34042    1.24703    1.74231  )
        4     C   12.0107   tau(    4) = (    0.66631    1.80985    1.74231  )
        5     C   12.0107   tau(    5) = (    0.83369    2.09790    1.74231  )
        6     C   12.0107   tau(    6) = (    0.16834    1.52508    1.74231  )
        7     C   12.0107   tau(    7) = (    0.33369    1.80985    1.74231  )
        8     C   12.0107   tau(    8) = (    0.66834    2.38268    1.74231  )
        9     C   12.0107   tau(    9) = (    0.84042    2.66073    1.74231  )
       10     C   12.0107   tau(   10) = (    0.16631    2.09790    1.74231  )
       11     C   12.0107   tau(   11) = (    0.33166    2.38268    1.74231  )
       12     C   12.0107   tau(   12) = (    0.15958    2.66073    1.74231  )
       13     H    1.0079   tau(   13) = (    0.77872    1.02449    1.74231  )
       14     H    1.0079   tau(   14) = (    0.22128    1.02449    1.74231  )
       15     H    1.0079   tau(   15) = (    0.72128    2.88326    1.74231  )
       16     H    1.0079   tau(   16) = (    0.27872    2.88326    1.74231  )

     Computing dynamical matrix for 
                    q = (   0.0000000   0.0000000   0.0000000 )
 
      9 Sym.Ops. (with q -> -q+G )


     G cutoff =  452.6121  (  18310 G-vectors)     FFT grid: ( 48,180,150)
     number of k points=    21

     PseudoPot. # 1 for C  read from file:
     ../Pseudo/C.pbe-rrkjus.UPF
     MD5 check sum: 00fb224312de0c5b6853bd333518df6f
     Pseudo is Ultrasoft, Zval =  4.0
     Generated by new atomic code, or converted to UPF format
     Using radial grid of  627 points,  4 beta functions with: 
                l(1) =   0
                l(2) =   0
                l(3) =   1
                l(4) =   1
     Q(r) pseudized with 0 coefficients 


     PseudoPot. # 2 for H  read from file:
     ../Pseudo/H.pbe-rrkjus.UPF
     MD5 check sum: 7cc9d459525c9a0585f487a71c3c9563
     Pseudo is Ultrasoft, Zval =  1.0
     Generated by new atomic code, or converted to UPF format
     Using radial grid of 1061 points,  2 beta functions with: 
                l(1) =   0
                l(2) =   0
     Q(r) pseudized with 0 coefficients 


     Mode symmetry, D_2h (mmm)  point group:


     Electric field:
     Dielectric constant
     Born effective charges in two ways 


     Atomic displacements:
     There are   48 irreducible representations

     Representation     1      1 modes -  To be done

     Representation     2      1 modes -  To be done

     Representation     3      1 modes -  To be done

     Representation     4      1 modes -  To be done

     Representation     5      1 modes -  To be done

     Representation     6      1 modes -  To be done

     Representation     7      1 modes -  To be done

     Representation     8      1 modes -  To be done

     Representation     9      1 modes -  To be done

     Representation    10      1 modes -  To be done

     Representation    11      1 modes -  To be done

     Representation    12      1 modes -  To be done

     Representation    13      1 modes -  To be done

     Representation    14      1 modes -  To be done

     Representation    15      1 modes -  To be done

     Representation    16      1 modes -  To be done

     Representation    17      1 modes -  To be done

     Representation    18      1 modes -  To be done

     Representation    19      1 modes -  To be done

     Representation    20      1 modes -  To be done

     Representation    21      1 modes -  To be done

     Representation    22      1 modes -  To be done

     Representation    23      1 modes -  To be done

     Representation    24      1 modes -  To be done

     Representation    25      1 modes -  To be done

     Representation    26      1 modes -  To be done

     Representation    27      1 modes -  To be done

     Representation    28      1 modes -  To be done

     Representation    29      1 modes -  To be done

     Representation    30      1 modes -  To be done

     Representation    31      1 modes -  To be done

     Representation    32      1 modes -  To be done

     Representation    33      1 modes -  To be done

     Representation    34      1 modes -  To be done

     Representation    35      1 modes -  To be done

     Representation    36      1 modes -  To be done

     Representation    37      1 modes -  To be done

     Representation    38      1 modes -  To be done

     Representation    39      1 modes -  To be done

     Representation    40      1 modes -  To be done

     Representation    41      1 modes -  To be done

     Representation    42      1 modes -  To be done

     Representation    43      1 modes -  To be done

     Representation    44      1 modes -  To be done

     Representation    45      1 modes -  To be done

     Representation    46      1 modes -  To be done

     Representation    47      1 modes -  To be done

     Representation    48      1 modes -  To be done



     Alpha used in Ewald sum =   2.5000
     PHONON       :   1m19.15s CPU   1m23.11s WALL


     Electric Fields Calculation

      iter #   1 total cpu time :   283.9 secs   av.it.:   6.0
      thresh= 1.000E-02 alpha_mix =  0.700 |ddv_scf|^2 =  2.988E-06

      iter #   2 total cpu time :   368.6 secs   av.it.:  10.8
      thresh= 1.729E-04 alpha_mix =  0.700 |ddv_scf|^2 =  7.529E-06

      iter #   3 total cpu time :   445.7 secs   av.it.:   9.5
      thresh= 2.744E-04 alpha_mix =  0.700 |ddv_scf|^2 =  1.162E-07

      iter #   4 total cpu time :   529.9 secs   av.it.:  10.7
      thresh= 3.409E-05 alpha_mix =  0.700 |ddv_scf|^2 =  2.876E-09

      iter #   5 total cpu time :   620.5 secs   av.it.:  11.6
      thresh= 5.363E-06 alpha_mix =  0.700 |ddv_scf|^2 =  1.772E-09

      iter #   6 total cpu time :   702.9 secs   av.it.:  10.6
      thresh= 4.209E-06 alpha_mix =  0.700 |ddv_scf|^2 =  1.264E-10

      iter #   7 total cpu time :   789.2 secs   av.it.:  11.0
      thresh= 1.124E-06 alpha_mix =  0.700 |ddv_scf|^2 =  3.650E-11

      iter #   8 total cpu time :   872.8 secs   av.it.:  10.7
      thresh= 6.042E-07 alpha_mix =  0.700 |ddv_scf|^2 =  3.112E-13

      iter #   9 total cpu time :   960.7 secs   av.it.:  11.2
      thresh= 5.579E-08 alpha_mix =  0.700 |ddv_scf|^2 =  8.301E-14

      iter #  10 total cpu time :  1047.7 secs   av.it.:  11.2
      thresh= 2.881E-08 alpha_mix =  0.700 |ddv_scf|^2 =  8.260E-16

      iter #  11 total cpu time :  1141.4 secs   av.it.:  12.0
      thresh= 2.874E-09 alpha_mix =  0.700 |ddv_scf|^2 =  6.252E-16

      iter #  12 total cpu time :  1231.9 secs   av.it.:  11.7
      thresh= 2.500E-09 alpha_mix =  0.700 |ddv_scf|^2 =  5.232E-17

      iter #  13 total cpu time :  1320.5 secs   av.it.:  11.4
      thresh= 7.233E-10 alpha_mix =  0.700 |ddv_scf|^2 =  9.111E-18

      iter #  14 total cpu time :  1408.9 secs   av.it.:  11.3
      thresh= 3.018E-10 alpha_mix =  0.700 |ddv_scf|^2 =  1.238E-17

      iter #  15 total cpu time :  1494.6 secs   av.it.:  11.0
      thresh= 3.519E-10 alpha_mix =  0.700 |ddv_scf|^2 =  5.261E-19

     End of electric fields calculation

          Dielectric constant in cartesian axis 

          (       2.923252789       0.000000000       0.000000000 )
          (       0.000000000       1.302372812       0.000000000 )
          (       0.000000000       0.000000000       1.094208595 )

          Effective charges (d Force / dE) in cartesian axis

           atom      1   C  
      Ex  (       -0.36536       -0.27621        0.00000 )
      Ey  (       -0.06643        0.04931        0.00000 )
      Ez  (        0.00000        0.00000       -0.11444 )
           atom      2   C  
      Ex  (        0.51747        0.08992        0.00000 )
      Ey  (        0.10258       -0.04040        0.00000 )
      Ez  (        0.00000        0.00000       -0.00104 )
           atom      3   C  
      Ex  (       -0.36536        0.27621        0.00000 )
      Ey  (        0.06643        0.04931        0.00000 )
      Ez  (        0.00000        0.00000       -0.11444 )
           atom      4   C  
      Ex  (       -0.22225        0.36237        0.00000 )
      Ey  (        0.06576        0.02918        0.00000 )
      Ez  (        0.00000        0.00000        0.00547 )
           atom      5   C  
      Ex  (       -0.22225        0.36237        0.00000 )
      Ey  (        0.06576        0.02918        0.00000 )
      Ez  (        0.00000        0.00000        0.00547 )
           atom      6   C  
      Ex  (        0.51747       -0.08992        0.00000 )
      Ey  (       -0.10258       -0.04040        0.00000 )
      Ez  (        0.00000        0.00000       -0.00104 )
           atom      7   C  
      Ex  (       -0.22225       -0.36237        0.00000 )
      Ey  (       -0.06576        0.02918        0.00000 )
      Ez  (        0.00000        0.00000        0.00547 )
           atom      8   C  
      Ex  (        0.51747        0.08992        0.00000 )
      Ey  (        0.10258       -0.04040        0.00000 )
      Ez  (        0.00000        0.00000       -0.00104 )
           atom      9   C  
      Ex  (       -0.36536       -0.27621        0.00000 )
      Ey  (       -0.06643        0.04931        0.00000 )
      Ez  (        0.00000        0.00000       -0.11444 )
           atom     10   C  
      Ex  (       -0.22225       -0.36237        0.00000 )
      Ey  (       -0.06576        0.02918        0.00000 )
      Ez  (        0.00000        0.00000        0.00547 )
           atom     11   C  
      Ex  (        0.51747       -0.08992        0.00000 )
      Ey  (       -0.10258       -0.04040        0.00000 )
      Ez  (        0.00000        0.00000       -0.00104 )
           atom     12   C  
      Ex  (       -0.36536        0.27621        0.00000 )
      Ey  (        0.06643        0.04931        0.00000 )
      Ez  (        0.00000        0.00000       -0.11444 )
           atom     13   H  
      Ex  (        0.07126        0.14517        0.00000 )
      Ey  (        0.10097       -0.03776        0.00000 )
      Ez  (        0.00000        0.00000        0.11065 )
           atom     14   H  
      Ex  (        0.07126       -0.14517        0.00000 )
      Ey  (       -0.10097       -0.03776        0.00000 )
      Ez  (        0.00000        0.00000        0.11065 )
           atom     15   H  
      Ex  (        0.07126        0.14517        0.00000 )
      Ey  (        0.10097       -0.03776        0.00000 )
      Ez  (        0.00000        0.00000        0.11065 )
           atom     16   H  
      Ex  (        0.07126       -0.14517        0.00000 )
      Ey  (       -0.10097       -0.03776        0.00000 )
      Ez  (        0.00000        0.00000        0.11065 )


     Representation #   1 mode #   1

     Self-consistent Calculation

      iter #   1 total cpu time :  1931.6 secs   av.it.:   5.0
      thresh= 1.000E-02 alpha_mix =  0.700 |ddv_scf|^2 =  5.121E-09

      iter #   2 total cpu time :  1963.1 secs   av.it.:  11.7
      thresh= 7.156E-06 alpha_mix =  0.700 |ddv_scf|^2 =  2.168E-09

      iter #   3 total cpu time :  1992.3 secs   av.it.:  11.0
      thresh= 4.656E-06 alpha_mix =  0.700 |ddv_scf|^2 =  5.298E-10

      iter #   4 total cpu time :  2020.2 secs   av.it.:  10.2
      thresh= 2.302E-06 alpha_mix =  0.700 |ddv_scf|^2 =  7.992E-11

      iter #   5 total cpu time :  2048.7 secs   av.it.:  10.8
      thresh= 8.940E-07 alpha_mix =  0.700 |ddv_scf|^2 =  1.248E-11

      iter #   6 total cpu time :  2077.4 secs   av.it.:  11.0
      thresh= 3.532E-07 alpha_mix =  0.700 |ddv_scf|^2 =  3.572E-13

      iter #   7 total cpu time :  2106.6 secs   av.it.:  11.0
      thresh= 5.977E-08 alpha_mix =  0.700 |ddv_scf|^2 =  1.714E-13

      iter #   8 total cpu time :  2134.6 secs   av.it.:  10.3
      thresh= 4.140E-08 alpha_mix =  0.700 |ddv_scf|^2 =  1.668E-16

      iter #   9 total cpu time :  2164.5 secs   av.it.:  11.4
      thresh= 1.291E-09 alpha_mix =  0.700 |ddv_scf|^2 =  1.426E-17

      iter #  10 total cpu time :  2194.2 secs   av.it.:  11.0
      thresh= 3.776E-10 alpha_mix =  0.700 |ddv_scf|^2 =  5.997E-19

     End of self-consistent calculation

     Convergence has been achieved 


     Representation #   2 mode #   2

     Self-consistent Calculation

      iter #   1 total cpu time :  2219.9 secs   av.it.:   5.0
      thresh= 1.000E-02 alpha_mix =  0.700 |ddv_scf|^2 =  3.877E-08

      iter #   2 total cpu time :  2249.6 secs   av.it.:  11.2
      thresh= 1.969E-05 alpha_mix =  0.700 |ddv_scf|^2 =  8.192E-08

      iter #   3 total cpu time :  2276.9 secs   av.it.:  10.0
      thresh= 2.862E-05 alpha_mix =  0.700 |ddv_scf|^2 =  1.552E-09

      iter #   4 total cpu time :  2305.4 secs   av.it.:  10.9
      thresh= 3.939E-06 alpha_mix =  0.700 |ddv_scf|^2 =  1.655E-10

      iter #   5 total cpu time :  2334.2 secs   av.it.:  11.0
      thresh= 1.287E-06 alpha_mix =  0.700 |ddv_scf|^2 =  5.577E-12

      iter #   6 total cpu time :  2363.0 secs   av.it.:  11.0
      thresh= 2.362E-07 alpha_mix =  0.700 |ddv_scf|^2 =  3.883E-13

      iter #   7 total cpu time :  2391.6 secs   av.it.:  11.0
      thresh= 6.232E-08 alpha_mix =  0.700 |ddv_scf|^2 =  7.418E-14

      iter #   8 total cpu time :  2419.6 secs   av.it.:  10.6
      thresh= 2.724E-08 alpha_mix =  0.700 |ddv_scf|^2 =  2.004E-16

      iter #   9 total cpu time :  2448.9 secs   av.it.:  11.0
      thresh= 1.416E-09 alpha_mix =  0.700 |ddv_scf|^2 =  1.904E-17

      iter #  10 total cpu time :  2477.9 secs   av.it.:  11.0
      thresh= 4.363E-10 alpha_mix =  0.700 |ddv_scf|^2 =  1.378E-18

      iter #  11 total cpu time :  2506.4 secs   av.it.:  10.8
      thresh= 1.174E-10 alpha_mix =  0.700 |ddv_scf|^2 =  1.705E-19

     End of self-consistent calculation

     Convergence has been achieved 


     Representation #   3 mode #   3

     Self-consistent Calculation

      iter #   1 total cpu time :  2528.8 secs   av.it.:   3.9
      thresh= 1.000E-02 alpha_mix =  0.700 |ddv_scf|^2 =  1.013E-09

      iter #   2 total cpu time :  2558.8 secs   av.it.:  11.6
      thresh= 3.183E-06 alpha_mix =  0.700 |ddv_scf|^2 =  2.489E-09

      iter #   3 total cpu time :  2586.1 secs   av.it.:  10.0
      thresh= 4.989E-06 alpha_mix =  0.700 |ddv_scf|^2 =  9.172E-11

      iter #   4 total cpu time :  2615.1 secs   av.it.:  11.0
      thresh= 9.577E-07 alpha_mix =  0.700 |ddv_scf|^2 =  7.583E-12

      iter #   5 total cpu time :  2644.8 secs   av.it.:  11.0
      thresh= 2.754E-07 alpha_mix =  0.700 |ddv_scf|^2 =  3.235E-12

      iter #   6 total cpu time :  2673.9 secs   av.it.:  11.0
      thresh= 1.799E-07 alpha_mix =  0.700 |ddv_scf|^2 =  6.638E-14

      iter #   7 total cpu time :  2702.9 secs   av.it.:  11.0
      thresh= 2.576E-08 alpha_mix =  0.700 |ddv_scf|^2 =  8.439E-16

      iter #   8 total cpu time :  2732.4 secs   av.it.:  11.0
      thresh= 2.905E-09 alpha_mix =  0.700 |ddv_scf|^2 =  1.923E-16

      iter #   9 total cpu time :  2761.3 secs   av.it.:  11.0
      thresh= 1.387E-09 alpha_mix =  0.700 |ddv_scf|^2 =  2.362E-16

      iter #  10 total cpu time :  2788.3 secs   av.it.:  10.0
      thresh= 1.537E-09 alpha_mix =  0.700 |ddv_scf|^2 =  4.628E-19

     End of self-consistent calculation

     Convergence has been achieved 


     Representation #   4 mode #   4

     Self-consistent Calculation

      iter #   1 total cpu time :  2812.4 secs   av.it.:   5.0
      thresh= 1.000E-02 alpha_mix =  0.700 |ddv_scf|^2 =  1.623E-07

      iter #   2 total cpu time :  2841.4 secs   av.it.:  11.0
      thresh= 4.028E-05 alpha_mix =  0.700 |ddv_scf|^2 =  5.778E-07

      iter #   3 total cpu time :  2868.1 secs   av.it.:  10.0
      thresh= 7.602E-05 alpha_mix =  0.700 |ddv_scf|^2 =  9.888E-11

      iter #   4 total cpu time :  2897.3 secs   av.it.:  11.0
      thresh= 9.944E-07 alpha_mix =  0.700 |ddv_scf|^2 =  8.623E-12

      iter #   5 total cpu time :  2926.4 secs   av.it.:  11.0
      thresh= 2.937E-07 alpha_mix =  0.700 |ddv_scf|^2 =  1.470E-12

      iter #   6 total cpu time :  2955.7 secs   av.it.:  11.0
      thresh= 1.213E-07 alpha_mix =  0.700 |ddv_scf|^2 =  1.058E-13

      iter #   7 total cpu time :  2984.6 secs   av.it.:  11.0
      thresh= 3.253E-08 alpha_mix =  0.700 |ddv_scf|^2 =  7.542E-15

      iter #   8 total cpu time :  3013.2 secs   av.it.:  10.8
      thresh= 8.684E-09 alpha_mix =  0.700 |ddv_scf|^2 =  1.800E-16

      iter #   9 total cpu time :  3042.2 secs   av.it.:  11.0
      thresh= 1.342E-09 alpha_mix =  0.700 |ddv_scf|^2 =  2.781E-18

      iter #  10 total cpu time :  3071.6 secs   av.it.:  11.0
      thresh= 1.668E-10 alpha_mix =  0.700 |ddv_scf|^2 =  2.694E-19

     End of self-consistent calculation

     Convergence has been achieved 


     Representation #   5 mode #   5

     Self-consistent Calculation

      iter #   1 total cpu time :  3097.6 secs   av.it.:   5.0
      thresh= 1.000E-02 alpha_mix =  0.700 |ddv_scf|^2 =  4.479E-08

      iter #   2 total cpu time :  3127.4 secs   av.it.:  11.0
      thresh= 2.116E-05 alpha_mix =  0.700 |ddv_scf|^2 =  1.501E-07

      iter #   3 total cpu time :  3154.5 secs   av.it.:  10.0
      thresh= 3.874E-05 alpha_mix =  0.700 |ddv_scf|^2 =  8.576E-10

      iter #   4 total cpu time :  3183.8 secs   av.it.:  11.0
      thresh= 2.928E-06 alpha_mix =  0.700 |ddv_scf|^2 =  1.282E-10

      iter #   5 total cpu time :  3212.9 secs   av.it.:  11.0
      thresh= 1.132E-06 alpha_mix =  0.700 |ddv_scf|^2 =  6.456E-12

      iter #   6 total cpu time :  3242.4 secs   av.it.:  11.0
      thresh= 2.541E-07 alpha_mix =  0.700 |ddv_scf|^2 =  1.315E-12

      iter #   7 total cpu time :  3271.4 secs   av.it.:  11.0
      thresh= 1.147E-07 alpha_mix =  0.700 |ddv_scf|^2 =  2.409E-13

      iter #   8 total cpu time :  3299.5 secs   av.it.:  10.2
      thresh= 4.909E-08 alpha_mix =  0.700 |ddv_scf|^2 =  5.660E-17

      iter #   9 total cpu time :  3328.8 secs   av.it.:  11.0
      thresh= 7.523E-10 alpha_mix =  0.700 |ddv_scf|^2 =  2.794E-18

      iter #  10 total cpu time :  3358.0 secs   av.it.:  11.0
      thresh= 1.671E-10 alpha_mix =  0.700 |ddv_scf|^2 =  3.709E-19

     End of self-consistent calculation

     Convergence has been achieved 


     Representation #   6 mode #   6

     Self-consistent Calculation

      iter #   1 total cpu time :  3383.7 secs   av.it.:   5.0
      thresh= 1.000E-02 alpha_mix =  0.700 |ddv_scf|^2 =  7.841E-08

      iter #   2 total cpu time :  3412.7 secs   av.it.:  11.0
      thresh= 2.800E-05 alpha_mix =  0.700 |ddv_scf|^2 =  9.893E-08

      iter #   3 total cpu time :  3440.2 secs   av.it.:  10.0
      thresh= 3.145E-05 alpha_mix =  0.700 |ddv_scf|^2 =  4.074E-09

      iter #   4 total cpu time :  3468.3 secs   av.it.:  10.4
      thresh= 6.383E-06 alpha_mix =  0.700 |ddv_scf|^2 =  1.380E-10

      iter #   5 total cpu time :  3496.3 secs   av.it.:  10.6
      thresh= 1.175E-06 alpha_mix =  0.700 |ddv_scf|^2 =  1.242E-11

      iter #   6 total cpu time :  3525.8 secs   av.it.:  11.1
      thresh= 3.524E-07 alpha_mix =  0.700 |ddv_scf|^2 =  1.193E-12

      iter #   7 total cpu time :  3554.3 secs   av.it.:  10.9
      thresh= 1.092E-07 alpha_mix =  0.700 |ddv_scf|^2 =  8.408E-15

      iter #   8 total cpu time :  3583.4 secs   av.it.:  11.0
      thresh= 9.169E-09 alpha_mix =  0.700 |ddv_scf|^2 =  1.355E-15

      iter #   9 total cpu time :  3611.8 secs   av.it.:  10.9
      thresh= 3.682E-09 alpha_mix =  0.700 |ddv_scf|^2 =  1.314E-16

      iter #  10 total cpu time :  3639.6 secs   av.it.:  10.2
      thresh= 1.147E-09 alpha_mix =  0.700 |ddv_scf|^2 =  3.745E-18

      iter #  11 total cpu time :  3667.0 secs   av.it.:  10.1
      thresh= 1.935E-10 alpha_mix =  0.700 |ddv_scf|^2 =  4.704E-20

     End of self-consistent calculation

     Convergence has been achieved 


     Representation #   7 mode #   7

     Self-consistent Calculation

      iter #   1 total cpu time :  3689.1 secs   av.it.:   3.0
      thresh= 1.000E-02 alpha_mix =  0.700 |ddv_scf|^2 =  1.974E-09

      iter #   2 total cpu time :  3718.2 secs   av.it.:  11.0
      thresh= 4.443E-06 alpha_mix =  0.700 |ddv_scf|^2 =  4.093E-10

      iter #   3 total cpu time :  3747.6 secs   av.it.:  11.0
      thresh= 2.023E-06 alpha_mix =  0.700 |ddv_scf|^2 =  7.300E-10

      iter #   4 total cpu time :  3774.4 secs   av.it.:  10.0
      thresh= 2.702E-06 alpha_mix =  0.700 |ddv_scf|^2 =  7.466E-12

      iter #   5 total cpu time :  3802.4 secs   av.it.:  10.6
      thresh= 2.732E-07 alpha_mix =  0.700 |ddv_scf|^2 =  4.160E-13

      iter #   6 total cpu time :  3831.6 secs   av.it.:  11.0
      thresh= 6.450E-08 alpha_mix =  0.700 |ddv_scf|^2 =  7.208E-14

      iter #   7 total cpu time :  3860.8 secs   av.it.:  11.0
      thresh= 2.685E-08 alpha_mix =  0.700 |ddv_scf|^2 =  2.221E-15

      iter #   8 total cpu time :  3889.9 secs   av.it.:  11.0
      thresh= 4.713E-09 alpha_mix =  0.700 |ddv_scf|^2 =  2.079E-16

      iter #   9 total cpu time :  3918.5 secs   av.it.:  11.0
      thresh= 1.442E-09 alpha_mix =  0.700 |ddv_scf|^2 =  1.184E-16

      iter #  10 total cpu time :  3945.8 secs   av.it.:  10.0
      thresh= 1.088E-09 alpha_mix =  0.700 |ddv_scf|^2 =  4.230E-18

      iter #  11 total cpu time :  3972.7 secs   av.it.:  10.0
      thresh= 2.057E-10 alpha_mix =  0.700 |ddv_scf|^2 =  1.087E-19

     End of self-consistent calculation

     Convergence has been achieved 


     Representation #   8 mode #   8

     Self-consistent Calculation

      iter #   1 total cpu time :  3996.2 secs   av.it.:   5.0
      thresh= 1.000E-02 alpha_mix =  0.700 |ddv_scf|^2 =  1.225E-08

      iter #   2 total cpu time :  4026.3 secs   av.it.:  11.7
      thresh= 1.107E-05 alpha_mix =  0.700 |ddv_scf|^2 =  8.818E-09

      iter #   3 total cpu time :  4055.4 secs   av.it.:  11.0
      thresh= 9.391E-06 alpha_mix =  0.700 |ddv_scf|^2 =  6.771E-10

      iter #   4 total cpu time :  4083.8 secs   av.it.:  10.7
      thresh= 2.602E-06 alpha_mix =  0.700 |ddv_scf|^2 =  2.518E-10

      iter #   5 total cpu time :  4111.3 secs   av.it.:  10.1
      thresh= 1.587E-06 alpha_mix =  0.700 |ddv_scf|^2 =  1.580E-11

      iter #   6 total cpu time :  4139.8 secs   av.it.:  10.9
      thresh= 3.975E-07 alpha_mix =  0.700 |ddv_scf|^2 =  2.583E-12

      iter #   7 total cpu time :  4168.1 secs   av.it.:  10.8
      thresh= 1.607E-07 alpha_mix =  0.700 |ddv_scf|^2 =  1.258E-13

      iter #   8 total cpu time :  4196.6 secs   av.it.:  10.8
      thresh= 3.547E-08 alpha_mix =  0.700 |ddv_scf|^2 =  3.037E-15

      iter #   9 total cpu time :  4226.6 secs   av.it.:  11.5
      thresh= 5.511E-09 alpha_mix =  0.700 |ddv_scf|^2 =  5.998E-16

      iter #  10 total cpu time :  4256.0 secs   av.it.:  11.0
      thresh= 2.449E-09 alpha_mix =  0.700 |ddv_scf|^2 =  3.849E-18

      iter #  11 total cpu time :  4286.0 secs   av.it.:  11.5
      thresh= 1.962E-10 alpha_mix =  0.700 |ddv_scf|^2 =  5.381E-19

     End of self-consistent calculation

     Convergence has been achieved 


     Representation #   9 mode #   9

     Self-consistent Calculation

      iter #   1 total cpu time :  4308.2 secs   av.it.:   3.2
      thresh= 1.000E-02 alpha_mix =  0.700 |ddv_scf|^2 =  3.192E-10

      iter #   2 total cpu time :  4338.8 secs   av.it.:  11.8
      thresh= 1.787E-06 alpha_mix =  0.700 |ddv_scf|^2 =  2.456E-10

      iter #   3 total cpu time :  4368.5 secs   av.it.:  11.3
      thresh= 1.567E-06 alpha_mix =  0.700 |ddv_scf|^2 =  1.067E-11

      iter #   4 total cpu time :  4398.2 secs   av.it.:  11.0
      thresh= 3.266E-07 alpha_mix =  0.700 |ddv_scf|^2 =  2.112E-12

      iter #   5 total cpu time :  4428.0 secs   av.it.:  11.0
      thresh= 1.453E-07 alpha_mix =  0.700 |ddv_scf|^2 =  3.827E-14

      iter #   6 total cpu time :  4457.8 secs   av.it.:  11.0
      thresh= 1.956E-08 alpha_mix =  0.700 |ddv_scf|^2 =  2.925E-15

      iter #   7 total cpu time :  4487.6 secs   av.it.:  11.0
      thresh= 5.409E-09 alpha_mix =  0.700 |ddv_scf|^2 =  4.264E-17

      iter #   8 total cpu time :  4517.6 secs   av.it.:  11.2
      thresh= 6.530E-10 alpha_mix =  0.700 |ddv_scf|^2 =  3.679E-18

      iter #   9 total cpu time :  4547.8 secs   av.it.:  11.5
      thresh= 1.918E-10 alpha_mix =  0.700 |ddv_scf|^2 =  4.240E-19

     End of self-consistent calculation

     Convergence has been achieved 


     Representation #  10 mode #  10

     Self-consistent Calculation

      iter #   1 total cpu time :  4570.9 secs   av.it.:   5.0
      thresh= 1.000E-02 alpha_mix =  0.700 |ddv_scf|^2 =  7.470E-09

      iter #   2 total cpu time :  4602.0 secs   av.it.:  11.9
      thresh= 8.643E-06 alpha_mix =  0.700 |ddv_scf|^2 =  7.995E-09

      iter #   3 total cpu time :  4631.7 secs   av.it.:  11.0
      thresh= 8.941E-06 alpha_mix =  0.700 |ddv_scf|^2 =  1.101E-10

      iter #   4 total cpu time :  4661.5 secs   av.it.:  11.0
      thresh= 1.049E-06 alpha_mix =  0.700 |ddv_scf|^2 =  3.117E-11

      iter #   5 total cpu time :  4691.2 secs   av.it.:  11.0
      thresh= 5.583E-07 alpha_mix =  0.700 |ddv_scf|^2 =  3.440E-13

      iter #   6 total cpu time :  4721.2 secs   av.it.:  11.2
      thresh= 5.865E-08 alpha_mix =  0.700 |ddv_scf|^2 =  3.274E-14

      iter #   7 total cpu time :  4751.3 secs   av.it.:  11.5
      thresh= 1.809E-08 alpha_mix =  0.700 |ddv_scf|^2 =  7.197E-16

      iter #   8 total cpu time :  4781.3 secs   av.it.:  11.1
      thresh= 2.683E-09 alpha_mix =  0.700 |ddv_scf|^2 =  7.516E-18

      iter #   9 total cpu time :  4809.9 secs   av.it.:  10.9
      thresh= 2.741E-10 alpha_mix =  0.700 |ddv_scf|^2 =  7.450E-19

     End of self-consistent calculation

     Convergence has been achieved 


     Representation #  11 mode #  11

     Self-consistent Calculation

      iter #   1 total cpu time :  4835.3 secs   av.it.:   5.0
      thresh= 1.000E-02 alpha_mix =  0.700 |ddv_scf|^2 =  1.146E-08

      iter #   2 total cpu time :  4866.0 secs   av.it.:  11.8
      thresh= 1.071E-05 alpha_mix =  0.700 |ddv_scf|^2 =  1.323E-08

      iter #   3 total cpu time :  4895.2 secs   av.it.:  11.0
      thresh= 1.150E-05 alpha_mix =  0.700 |ddv_scf|^2 =  9.947E-11

      iter #   4 total cpu time :  4925.4 secs   av.it.:  11.3
      thresh= 9.973E-07 alpha_mix =  0.700 |ddv_scf|^2 =  3.837E-11

      iter #   5 total cpu time :  4955.4 secs   av.it.:  11.2
      thresh= 6.195E-07 alpha_mix =  0.700 |ddv_scf|^2 =  5.298E-13

      iter #   6 total cpu time :  4985.3 secs   av.it.:  11.0
      thresh= 7.279E-08 alpha_mix =  0.700 |ddv_scf|^2 =  2.826E-14

      iter #   7 total cpu time :  5015.3 secs   av.it.:  11.3
      thresh= 1.681E-08 alpha_mix =  0.700 |ddv_scf|^2 =  7.554E-16

      iter #   8 total cpu time :  5045.2 secs   av.it.:  11.0
      thresh= 2.748E-09 alpha_mix =  0.700 |ddv_scf|^2 =  1.264E-17

      iter #   9 total cpu time :  5074.0 secs   av.it.:  11.0
      thresh= 3.556E-10 alpha_mix =  0.700 |ddv_scf|^2 =  3.657E-19

     End of self-consistent calculation

     Convergence has been achieved 


     Representation #  12 mode #  12

     Self-consistent Calculation

      iter #   1 total cpu time :  5099.2 secs   av.it.:   4.8
      thresh= 1.000E-02 alpha_mix =  0.700 |ddv_scf|^2 =  6.953E-09

      iter #   2 total cpu time :  5129.8 secs   av.it.:  11.8
      thresh= 8.338E-06 alpha_mix =  0.700 |ddv_scf|^2 =  7.667E-09

      iter #   3 total cpu time :  5159.1 secs   av.it.:  11.0
      thresh= 8.756E-06 alpha_mix =  0.700 |ddv_scf|^2 =  9.205E-11

      iter #   4 total cpu time :  5188.6 secs   av.it.:  11.0
      thresh= 9.594E-07 alpha_mix =  0.700 |ddv_scf|^2 =  1.786E-11

      iter #   5 total cpu time :  5218.5 secs   av.it.:  11.4
      thresh= 4.227E-07 alpha_mix =  0.700 |ddv_scf|^2 =  6.609E-13

      iter #   6 total cpu time :  5248.1 secs   av.it.:  11.2
      thresh= 8.130E-08 alpha_mix =  0.700 |ddv_scf|^2 =  3.514E-14

      iter #   7 total cpu time :  5277.4 secs   av.it.:  11.0
      thresh= 1.875E-08 alpha_mix =  0.700 |ddv_scf|^2 =  5.772E-16

      iter #   8 total cpu time :  5306.7 secs   av.it.:  11.0
      thresh= 2.402E-09 alpha_mix =  0.700 |ddv_scf|^2 =  1.230E-17

      iter #   9 total cpu time :  5335.4 secs   av.it.:  11.0
      thresh= 3.507E-10 alpha_mix =  0.700 |ddv_scf|^2 =  3.973E-19

     End of self-consistent calculation

     Convergence has been achieved 


     Representation #  13 mode #  13

     Self-consistent Calculation

      iter #   1 total cpu time :  5357.9 secs   av.it.:   3.9
      thresh= 1.000E-02 alpha_mix =  0.700 |ddv_scf|^2 =  5.361E-10

      iter #   2 total cpu time :  5388.9 secs   av.it.:  11.9
      thresh= 2.315E-06 alpha_mix =  0.700 |ddv_scf|^2 =  5.435E-10

      iter #   3 total cpu time :  5418.6 secs   av.it.:  11.0
      thresh= 2.331E-06 alpha_mix =  0.700 |ddv_scf|^2 =  1.029E-11

      iter #   4 total cpu time :  5448.2 secs   av.it.:  11.0
      thresh= 3.208E-07 alpha_mix =  0.700 |ddv_scf|^2 =  3.436E-12

      iter #   5 total cpu time :  5477.8 secs   av.it.:  11.0
      thresh= 1.854E-07 alpha_mix =  0.700 |ddv_scf|^2 =  2.921E-14

      iter #   6 total cpu time :  5507.7 secs   av.it.:  11.2
      thresh= 1.709E-08 alpha_mix =  0.700 |ddv_scf|^2 =  2.623E-15

      iter #   7 total cpu time :  5537.7 secs   av.it.:  11.2
      thresh= 5.121E-09 alpha_mix =  0.700 |ddv_scf|^2 =  8.121E-17

      iter #   8 total cpu time :  5567.9 secs   av.it.:  11.4
      thresh= 9.012E-10 alpha_mix =  0.700 |ddv_scf|^2 =  6.323E-18

      iter #   9 total cpu time :  5598.2 secs   av.it.:  11.6
      thresh= 2.515E-10 alpha_mix =  0.700 |ddv_scf|^2 =  1.379E-18

      iter #  10 total cpu time :  5627.9 secs   av.it.:  11.0
      thresh= 1.174E-10 alpha_mix =  0.700 |ddv_scf|^2 =  4.998E-20

     End of self-consistent calculation

     Convergence has been achieved 


     Representation #  14 mode #  14

     Self-consistent Calculation

      iter #   1 total cpu time :  5650.7 secs   av.it.:   4.7
      thresh= 1.000E-02 alpha_mix =  0.700 |ddv_scf|^2 =  3.565E-09

      iter #   2 total cpu time :  5681.2 secs   av.it.:  11.8
      thresh= 5.971E-06 alpha_mix =  0.700 |ddv_scf|^2 =  1.747E-09

      iter #   3 total cpu time :  5711.2 secs   av.it.:  11.3
      thresh= 4.179E-06 alpha_mix =  0.700 |ddv_scf|^2 =  1.490E-10

      iter #   4 total cpu time :  5740.6 secs   av.it.:  11.0
      thresh= 1.221E-06 alpha_mix =  0.700 |ddv_scf|^2 =  1.779E-11

      iter #   5 total cpu time :  5770.6 secs   av.it.:  11.3
      thresh= 4.218E-07 alpha_mix =  0.700 |ddv_scf|^2 =  9.803E-13

      iter #   6 total cpu time :  5800.0 secs   av.it.:  11.0
      thresh= 9.901E-08 alpha_mix =  0.700 |ddv_scf|^2 =  2.790E-14

      iter #   7 total cpu time :  5829.8 secs   av.it.:  11.2
      thresh= 1.670E-08 alpha_mix =  0.700 |ddv_scf|^2 =  4.386E-16

      iter #   8 total cpu time :  5859.4 secs   av.it.:  11.2
      thresh= 2.094E-09 alpha_mix =  0.700 |ddv_scf|^2 =  1.102E-17

      iter #   9 total cpu time :  5888.8 secs   av.it.:  11.0
      thresh= 3.320E-10 alpha_mix =  0.700 |ddv_scf|^2 =  8.063E-20

     End of self-consistent calculation

     Convergence has been achieved 


     Representation #  15 mode #  15

     Self-consistent Calculation

      iter #   1 total cpu time :  5913.5 secs   av.it.:   4.1
      thresh= 1.000E-02 alpha_mix =  0.700 |ddv_scf|^2 =  3.718E-09

      iter #   2 total cpu time :  5944.0 secs   av.it.:  11.7
      thresh= 6.098E-06 alpha_mix =  0.700 |ddv_scf|^2 =  1.190E-09

      iter #   3 total cpu time :  5975.0 secs   av.it.:  11.7
      thresh= 3.450E-06 alpha_mix =  0.700 |ddv_scf|^2 =  1.856E-10

      iter #   4 total cpu time :  6005.1 secs   av.it.:  11.4
      thresh= 1.362E-06 alpha_mix =  0.700 |ddv_scf|^2 =  1.114E-11

      iter #   5 total cpu time :  6035.1 secs   av.it.:  11.4
      thresh= 3.338E-07 alpha_mix =  0.700 |ddv_scf|^2 =  2.163E-12

      iter #   6 total cpu time :  6064.8 secs   av.it.:  11.0
      thresh= 1.471E-07 alpha_mix =  0.700 |ddv_scf|^2 =  3.230E-14

      iter #   7 total cpu time :  6094.1 secs   av.it.:  11.0
      thresh= 1.797E-08 alpha_mix =  0.700 |ddv_scf|^2 =  3.680E-16

      iter #   8 total cpu time :  6123.4 secs   av.it.:  11.0
      thresh= 1.918E-09 alpha_mix =  0.700 |ddv_scf|^2 =  1.771E-17

      iter #   9 total cpu time :  6152.4 secs   av.it.:  11.0
      thresh= 4.208E-10 alpha_mix =  0.700 |ddv_scf|^2 =  3.483E-19

     End of self-consistent calculation

     Convergence has been achieved 


     Representation #  16 mode #  16

     Self-consistent Calculation

      iter #   1 total cpu time :  6178.0 secs   av.it.:   5.0
      thresh= 1.000E-02 alpha_mix =  0.700 |ddv_scf|^2 =  5.891E-09

      iter #   2 total cpu time :  6209.1 secs   av.it.:  11.8
      thresh= 7.675E-06 alpha_mix =  0.700 |ddv_scf|^2 =  4.813E-09

      iter #   3 total cpu time :  6239.2 secs   av.it.:  11.3
      thresh= 6.938E-06 alpha_mix =  0.700 |ddv_scf|^2 =  1.111E-10

      iter #   4 total cpu time :  6268.8 secs   av.it.:  11.0
      thresh= 1.054E-06 alpha_mix =  0.700 |ddv_scf|^2 =  2.384E-11

      iter #   5 total cpu time :  6298.2 secs   av.it.:  11.0
      thresh= 4.883E-07 alpha_mix =  0.700 |ddv_scf|^2 =  6.320E-13

      iter #   6 total cpu time :  6327.7 secs   av.it.:  11.0
      thresh= 7.950E-08 alpha_mix =  0.700 |ddv_scf|^2 =  1.120E-14

      iter #   7 total cpu time :  6357.9 secs   av.it.:  11.6
      thresh= 1.058E-08 alpha_mix =  0.700 |ddv_scf|^2 =  9.714E-16

      iter #   8 total cpu time :  6387.7 secs   av.it.:  11.2
      thresh= 3.117E-09 alpha_mix =  0.700 |ddv_scf|^2 =  6.288E-18

      iter #   9 total cpu time :  6415.9 secs   av.it.:  10.5
      thresh= 2.508E-10 alpha_mix =  0.700 |ddv_scf|^2 =  9.721E-19

     End of self-consistent calculation

     Convergence has been achieved 


     Representation #  17 mode #  17

     Self-consistent Calculation

      iter #   1 total cpu time :  6441.0 secs   av.it.:   5.0
      thresh= 1.000E-02 alpha_mix =  0.700 |ddv_scf|^2 =  2.830E-08

      iter #   2 total cpu time :  6470.0 secs   av.it.:  11.0
      thresh= 1.682E-05 alpha_mix =  0.700 |ddv_scf|^2 =  6.224E-09

      iter #   3 total cpu time :  6497.9 secs   av.it.:  10.6
      thresh= 7.889E-06 alpha_mix =  0.700 |ddv_scf|^2 =  4.058E-11

      iter #   4 total cpu time :  6525.1 secs   av.it.:  10.1
      thresh= 6.370E-07 alpha_mix =  0.700 |ddv_scf|^2 =  9.367E-13

      iter #   5 total cpu time :  6553.8 secs   av.it.:  11.0
      thresh= 9.678E-08 alpha_mix =  0.700 |ddv_scf|^2 =  1.125E-14

      iter #   6 total cpu time :  6581.3 secs   av.it.:  10.5
      thresh= 1.061E-08 alpha_mix =  0.700 |ddv_scf|^2 =  9.041E-17

      iter #   7 total cpu time :  6608.9 secs   av.it.:  10.5
      thresh= 9.509E-10 alpha_mix =  0.700 |ddv_scf|^2 =  2.604E-18

      iter #   8 total cpu time :  6637.1 secs   av.it.:  10.8
      thresh= 1.614E-10 alpha_mix =  0.700 |ddv_scf|^2 =  1.891E-20

     End of self-consistent calculation

     Convergence has been achieved 


     Representation #  18 mode #  18

     Self-consistent Calculation

      iter #   1 total cpu time :  6660.8 secs   av.it.:   5.0
      thresh= 1.000E-02 alpha_mix =  0.700 |ddv_scf|^2 =  5.901E-09

      iter #   2 total cpu time :  6690.3 secs   av.it.:  11.3
      thresh= 7.682E-06 alpha_mix =  0.700 |ddv_scf|^2 =  9.488E-10

      iter #   3 total cpu time :  6718.8 secs   av.it.:  11.0
      thresh= 3.080E-06 alpha_mix =  0.700 |ddv_scf|^2 =  4.526E-11

      iter #   4 total cpu time :  6746.5 secs   av.it.:  10.6
      thresh= 6.728E-07 alpha_mix =  0.700 |ddv_scf|^2 =  1.013E-12

      iter #   5 total cpu time :  6774.9 secs   av.it.:  10.9
      thresh= 1.006E-07 alpha_mix =  0.700 |ddv_scf|^2 =  1.130E-15

      iter #   6 total cpu time :  6804.3 secs   av.it.:  11.2
      thresh= 3.361E-09 alpha_mix =  0.700 |ddv_scf|^2 =  8.520E-17

      iter #   7 total cpu time :  6832.1 secs   av.it.:  10.6
      thresh= 9.230E-10 alpha_mix =  0.700 |ddv_scf|^2 =  8.034E-19

     End of self-consistent calculation

     Convergence has been achieved 


     Representation #  19 mode #  19

     Self-consistent Calculation

      iter #   1 total cpu time :  6853.2 secs   av.it.:   3.0
      thresh= 1.000E-02 alpha_mix =  0.700 |ddv_scf|^2 =  1.184E-09

      iter #   2 total cpu time :  6881.9 secs   av.it.:  11.0
      thresh= 3.442E-06 alpha_mix =  0.700 |ddv_scf|^2 =  1.566E-10

      iter #   3 total cpu time :  6910.2 secs   av.it.:  10.8
      thresh= 1.251E-06 alpha_mix =  0.700 |ddv_scf|^2 =  6.185E-12

      iter #   4 total cpu time :  6938.1 secs   av.it.:  10.7
      thresh= 2.487E-07 alpha_mix =  0.700 |ddv_scf|^2 =  1.194E-13

      iter #   5 total cpu time :  6966.1 secs   av.it.:  10.8
      thresh= 3.455E-08 alpha_mix =  0.700 |ddv_scf|^2 =  1.579E-15

      iter #   6 total cpu time :  6994.8 secs   av.it.:  11.0
      thresh= 3.973E-09 alpha_mix =  0.700 |ddv_scf|^2 =  3.271E-17

      iter #   7 total cpu time :  7021.4 secs   av.it.:  10.0
      thresh= 5.719E-10 alpha_mix =  0.700 |ddv_scf|^2 =  3.337E-18

      iter #   8 total cpu time :  7048.7 secs   av.it.:  10.4
      thresh= 1.827E-10 alpha_mix =  0.700 |ddv_scf|^2 =  5.107E-21

     End of self-consistent calculation

     Convergence has been achieved 


     Representation #  20 mode #  20

     Self-consistent Calculation

      iter #   1 total cpu time :  7071.5 secs   av.it.:   5.0
      thresh= 1.000E-02 alpha_mix =  0.700 |ddv_scf|^2 =  2.085E-08

      iter #   2 total cpu time :  7100.9 secs   av.it.:  11.5
      thresh= 1.444E-05 alpha_mix =  0.700 |ddv_scf|^2 =  5.203E-09

      iter #   3 total cpu time :  7128.9 secs   av.it.:  10.7
      thresh= 7.213E-06 alpha_mix =  0.700 |ddv_scf|^2 =  3.731E-11

      iter #   4 total cpu time :  7155.9 secs   av.it.:  10.2
      thresh= 6.109E-07 alpha_mix =  0.700 |ddv_scf|^2 =  8.129E-13

      iter #   5 total cpu time :  7184.0 secs   av.it.:  10.8
      thresh= 9.016E-08 alpha_mix =  0.700 |ddv_scf|^2 =  3.657E-15

      iter #   6 total cpu time :  7212.1 secs   av.it.:  10.8
      thresh= 6.047E-09 alpha_mix =  0.700 |ddv_scf|^2 =  1.254E-16

      iter #   7 total cpu time :  7239.5 secs   av.it.:  10.5
      thresh= 1.120E-09 alpha_mix =  0.700 |ddv_scf|^2 =  8.136E-19

     End of self-consistent calculation

     Convergence has been achieved 


     Representation #  21 mode #  21

     Self-consistent Calculation

      iter #   1 total cpu time :  7260.0 secs   av.it.:   3.0
      thresh= 1.000E-02 alpha_mix =  0.700 |ddv_scf|^2 =  2.214E-10

      iter #   2 total cpu time :  7289.0 secs   av.it.:  11.0
      thresh= 1.488E-06 alpha_mix =  0.700 |ddv_scf|^2 =  1.610E-11

      iter #   3 total cpu time :  7316.7 secs   av.it.:  10.4
      thresh= 4.013E-07 alpha_mix =  0.700 |ddv_scf|^2 =  1.599E-13

      iter #   4 total cpu time :  7358.0 secs   av.it.:  11.0
      thresh= 3.998E-08 alpha_mix =  0.700 |ddv_scf|^2 =  4.971E-16

      iter #   5 total cpu time :  7388.4 secs   av.it.:  11.6
      thresh= 2.230E-09 alpha_mix =  0.700 |ddv_scf|^2 =  1.720E-17

      iter #   6 total cpu time :  7418.5 secs   av.it.:  11.7
      thresh= 4.148E-10 alpha_mix =  0.700 |ddv_scf|^2 =  4.350E-19

     End of self-consistent calculation

     Convergence has been achieved 


     Representation #  22 mode #  22

     Self-consistent Calculation

      iter #   1 total cpu time :  7440.0 secs   av.it.:   4.0
      thresh= 1.000E-02 alpha_mix =  0.700 |ddv_scf|^2 =  1.942E-09

      iter #   2 total cpu time :  7468.9 secs   av.it.:  11.0
      thresh= 4.407E-06 alpha_mix =  0.700 |ddv_scf|^2 =  1.439E-10

      iter #   3 total cpu time :  7495.5 secs   av.it.:  10.0
      thresh= 1.200E-06 alpha_mix =  0.700 |ddv_scf|^2 =  1.665E-12

      iter #   4 total cpu time :  7524.0 secs   av.it.:  10.9
      thresh= 1.290E-07 alpha_mix =  0.700 |ddv_scf|^2 =  2.702E-15

      iter #   5 total cpu time :  7554.1 secs   av.it.:  11.5
      thresh= 5.198E-09 alpha_mix =  0.700 |ddv_scf|^2 =  1.198E-16

      iter #   6 total cpu time :  7581.3 secs   av.it.:  10.1
      thresh= 1.095E-09 alpha_mix =  0.700 |ddv_scf|^2 =  1.653E-18

      iter #   7 total cpu time :  7609.7 secs   av.it.:  11.0
      thresh= 1.286E-10 alpha_mix =  0.700 |ddv_scf|^2 =  5.508E-21

     End of self-consistent calculation

     Convergence has been achieved 


     Representation #  23 mode #  23

     Self-consistent Calculation

      iter #   1 total cpu time :  7633.0 secs   av.it.:   4.4
      thresh= 1.000E-02 alpha_mix =  0.700 |ddv_scf|^2 =  2.601E-09

      iter #   2 total cpu time :  7662.4 secs   av.it.:  11.4
      thresh= 5.100E-06 alpha_mix =  0.700 |ddv_scf|^2 =  1.529E-10

      iter #   3 total cpu time :  7690.3 secs   av.it.:  10.5
      thresh= 1.237E-06 alpha_mix =  0.700 |ddv_scf|^2 =  6.197E-12

      iter #   4 total cpu time :  7718.0 secs   av.it.:  10.5
      thresh= 2.489E-07 alpha_mix =  0.700 |ddv_scf|^2 =  2.654E-15

      iter #   5 total cpu time :  7747.4 secs   av.it.:  11.3
      thresh= 5.152E-09 alpha_mix =  0.700 |ddv_scf|^2 =  1.426E-16

      iter #   6 total cpu time :  7773.8 secs   av.it.:  10.0
      thresh= 1.194E-09 alpha_mix =  0.700 |ddv_scf|^2 =  8.324E-19

     End of self-consistent calculation

     Convergence has been achieved 


     Representation #  24 mode #  24

     Self-consistent Calculation

      iter #   1 total cpu time :  7797.0 secs   av.it.:   4.1
      thresh= 1.000E-02 alpha_mix =  0.700 |ddv_scf|^2 =  2.443E-09

      iter #   2 total cpu time :  7826.8 secs   av.it.:  11.5
      thresh= 4.942E-06 alpha_mix =  0.700 |ddv_scf|^2 =  1.486E-10

      iter #   3 total cpu time :  7854.3 secs   av.it.:  10.4
      thresh= 1.219E-06 alpha_mix =  0.700 |ddv_scf|^2 =  5.867E-12

      iter #   4 total cpu time :  7881.9 secs   av.it.:  10.5
      thresh= 2.422E-07 alpha_mix =  0.700 |ddv_scf|^2 =  3.193E-15

      iter #   5 total cpu time :  7910.7 secs   av.it.:  11.0
      thresh= 5.651E-09 alpha_mix =  0.700 |ddv_scf|^2 =  2.260E-16

      iter #   6 total cpu time :  7937.6 secs   av.it.:  10.0
      thresh= 1.503E-09 alpha_mix =  0.700 |ddv_scf|^2 =  1.107E-19

     End of self-consistent calculation

     Convergence has been achieved 


     Representation #  25 mode #  25

     Self-consistent Calculation

      iter #   1 total cpu time :  7958.2 secs   av.it.:   3.0
      thresh= 1.000E-02 alpha_mix =  0.700 |ddv_scf|^2 =  2.284E-10

      iter #   2 total cpu time :  7987.3 secs   av.it.:  11.0
      thresh= 1.511E-06 alpha_mix =  0.700 |ddv_scf|^2 =  1.679E-11

      iter #   3 total cpu time :  8014.8 secs   av.it.:  10.2
      thresh= 4.098E-07 alpha_mix =  0.700 |ddv_scf|^2 =  1.674E-13

      iter #   4 total cpu time :  8043.6 secs   av.it.:  11.0
      thresh= 4.092E-08 alpha_mix =  0.700 |ddv_scf|^2 =  7.334E-16

      iter #   5 total cpu time :  8073.9 secs   av.it.:  11.8
      thresh= 2.708E-09 alpha_mix =  0.700 |ddv_scf|^2 =  2.722E-17

      iter #   6 total cpu time :  8104.2 secs   av.it.:  11.7
      thresh= 5.217E-10 alpha_mix =  0.700 |ddv_scf|^2 =  8.564E-19

     End of self-consistent calculation

     Convergence has been achieved 


     Representation #  26 mode #  26

     Self-consistent Calculation

      iter #   1 total cpu time :  8126.4 secs   av.it.:   4.9
      thresh= 1.000E-02 alpha_mix =  0.700 |ddv_scf|^2 =  2.622E-09

      iter #   2 total cpu time :  8156.2 secs   av.it.:  11.5
      thresh= 5.121E-06 alpha_mix =  0.700 |ddv_scf|^2 =  1.542E-10

      iter #   3 total cpu time :  8184.3 secs   av.it.:  10.8
      thresh= 1.242E-06 alpha_mix =  0.700 |ddv_scf|^2 =  8.125E-12

      iter #   4 total cpu time :  8211.9 secs   av.it.:  10.6
      thresh= 2.851E-07 alpha_mix =  0.700 |ddv_scf|^2 =  4.680E-15

      iter #   5 total cpu time :  8241.2 secs   av.it.:  11.4
      thresh= 6.841E-09 alpha_mix =  0.700 |ddv_scf|^2 =  1.415E-16

      iter #   6 total cpu time :  8268.3 secs   av.it.:  10.0
      thresh= 1.189E-09 alpha_mix =  0.700 |ddv_scf|^2 =  3.457E-18

      iter #   7 total cpu time :  8296.0 secs   av.it.:  10.5
      thresh= 1.859E-10 alpha_mix =  0.700 |ddv_scf|^2 =  9.583E-21

     End of self-consistent calculation

     Convergence has been achieved 


     Representation #  27 mode #  27

     Self-consistent Calculation

      iter #   1 total cpu time :  8319.1 secs   av.it.:   4.2
      thresh= 1.000E-02 alpha_mix =  0.700 |ddv_scf|^2 =  2.450E-09

      iter #   2 total cpu time :  8349.1 secs   av.it.:  11.5
      thresh= 4.949E-06 alpha_mix =  0.700 |ddv_scf|^2 =  1.495E-10

      iter #   3 total cpu time :  8376.7 secs   av.it.:  10.4
      thresh= 1.223E-06 alpha_mix =  0.700 |ddv_scf|^2 =  6.157E-12

      iter #   4 total cpu time :  8404.6 secs   av.it.:  10.6
      thresh= 2.481E-07 alpha_mix =  0.700 |ddv_scf|^2 =  7.350E-15

      iter #   5 total cpu time :  8434.4 secs   av.it.:  11.5
      thresh= 8.573E-09 alpha_mix =  0.700 |ddv_scf|^2 =  3.310E-16

      iter #   6 total cpu time :  8461.7 secs   av.it.:  10.1
      thresh= 1.819E-09 alpha_mix =  0.700 |ddv_scf|^2 =  3.096E-18

      iter #   7 total cpu time :  8489.9 secs   av.it.:  10.8
      thresh= 1.759E-10 alpha_mix =  0.700 |ddv_scf|^2 =  1.013E-20

     End of self-consistent calculation

     Convergence has been achieved 


     Representation #  28 mode #  28

     Self-consistent Calculation

      iter #   1 total cpu time :  8513.5 secs   av.it.:   5.0
      thresh= 1.000E-02 alpha_mix =  0.700 |ddv_scf|^2 =  2.862E-09

      iter #   2 total cpu time :  8543.5 secs   av.it.:  11.6
      thresh= 5.350E-06 alpha_mix =  0.700 |ddv_scf|^2 =  1.311E-10

      iter #   3 total cpu time :  8572.9 secs   av.it.:  11.0
      thresh= 1.145E-06 alpha_mix =  0.700 |ddv_scf|^2 =  9.468E-12

      iter #   4 total cpu time :  8600.4 secs   av.it.:  10.3
      thresh= 3.077E-07 alpha_mix =  0.700 |ddv_scf|^2 =  4.249E-15

      iter #   5 total cpu time :  8630.3 secs   av.it.:  11.5
      thresh= 6.518E-09 alpha_mix =  0.700 |ddv_scf|^2 =  1.682E-16

      iter #   6 total cpu time :  8657.8 secs   av.it.:  10.2
      thresh= 1.297E-09 alpha_mix =  0.700 |ddv_scf|^2 =  2.425E-18

      iter #   7 total cpu time :  8685.6 secs   av.it.:  10.5
      thresh= 1.557E-10 alpha_mix =  0.700 |ddv_scf|^2 =  6.193E-21

     End of self-consistent calculation

     Convergence has been achieved 


     Representation #  29 mode #  29

     Self-consistent Calculation

      iter #   1 total cpu time :  8709.8 secs   av.it.:   5.0
      thresh= 1.000E-02 alpha_mix =  0.700 |ddv_scf|^2 =  5.893E-08

      iter #   2 total cpu time :  8738.3 secs   av.it.:  11.0
      thresh= 2.428E-05 alpha_mix =  0.700 |ddv_scf|^2 =  3.180E-08

      iter #   3 total cpu time :  8771.6 secs   av.it.:  10.0
      thresh= 1.783E-05 alpha_mix =  0.700 |ddv_scf|^2 =  1.026E-10

      iter #   4 total cpu time :  8800.1 secs   av.it.:  10.9
      thresh= 1.013E-06 alpha_mix =  0.700 |ddv_scf|^2 =  1.251E-11

      iter #   5 total cpu time :  8827.4 secs   av.it.:  10.2
      thresh= 3.538E-07 alpha_mix =  0.700 |ddv_scf|^2 =  6.999E-14

      iter #   6 total cpu time :  8854.5 secs   av.it.:  10.0
      thresh= 2.646E-08 alpha_mix =  0.700 |ddv_scf|^2 =  3.000E-15

      iter #   7 total cpu time :  8881.9 secs   av.it.:  10.4
      thresh= 5.477E-09 alpha_mix =  0.700 |ddv_scf|^2 =  6.520E-18

      iter #   8 total cpu time :  8909.4 secs   av.it.:  10.4
      thresh= 2.553E-10 alpha_mix =  0.700 |ddv_scf|^2 =  5.907E-19

     End of self-consistent calculation

     Convergence has been achieved 


     Representation #  30 mode #  30

     Self-consistent Calculation

      iter #   1 total cpu time :  8933.6 secs   av.it.:   5.0
      thresh= 1.000E-02 alpha_mix =  0.700 |ddv_scf|^2 =  9.572E-08

      iter #   2 total cpu time :  8962.3 secs   av.it.:  10.9
      thresh= 3.094E-05 alpha_mix =  0.700 |ddv_scf|^2 =  6.445E-08

      iter #   3 total cpu time :  8989.1 secs   av.it.:  10.0
      thresh= 2.539E-05 alpha_mix =  0.700 |ddv_scf|^2 =  9.836E-11

      iter #   4 total cpu time :  9017.8 secs   av.it.:  11.0
      thresh= 9.918E-07 alpha_mix =  0.700 |ddv_scf|^2 =  8.251E-12

      iter #   5 total cpu time :  9045.4 secs   av.it.:  10.5
      thresh= 2.873E-07 alpha_mix =  0.700 |ddv_scf|^2 =  5.352E-14

      iter #   6 total cpu time :  9072.5 secs   av.it.:  10.0
      thresh= 2.313E-08 alpha_mix =  0.700 |ddv_scf|^2 =  3.200E-15

      iter #   7 total cpu time :  9099.5 secs   av.it.:  10.0
      thresh= 5.657E-09 alpha_mix =  0.700 |ddv_scf|^2 =  6.027E-18

      iter #   8 total cpu time :  9127.1 secs   av.it.:  10.4
      thresh= 2.455E-10 alpha_mix =  0.700 |ddv_scf|^2 =  5.159E-19

     End of self-consistent calculation

     Convergence has been achieved 


     Representation #  31 mode #  31

     Self-consistent Calculation

      iter #   1 total cpu time :  9151.2 secs   av.it.:   5.0
      thresh= 1.000E-02 alpha_mix =  0.700 |ddv_scf|^2 =  7.696E-08

      iter #   2 total cpu time :  9179.8 secs   av.it.:  11.0
      thresh= 2.774E-05 alpha_mix =  0.700 |ddv_scf|^2 =  5.209E-08

      iter #   3 total cpu time :  9207.3 secs   av.it.:  10.0
      thresh= 2.282E-05 alpha_mix =  0.700 |ddv_scf|^2 =  8.184E-11

      iter #   4 total cpu time :  9234.4 secs   av.it.:  10.0
      thresh= 9.046E-07 alpha_mix =  0.700 |ddv_scf|^2 =  1.514E-12

      iter #   5 total cpu time :  9263.1 secs   av.it.:  11.0
      thresh= 1.230E-07 alpha_mix =  0.700 |ddv_scf|^2 =  9.752E-14

      iter #   6 total cpu time :  9291.0 secs   av.it.:  10.6
      thresh= 3.123E-08 alpha_mix =  0.700 |ddv_scf|^2 =  2.451E-15

      iter #   7 total cpu time :  9317.8 secs   av.it.:  10.0
      thresh= 4.951E-09 alpha_mix =  0.700 |ddv_scf|^2 =  5.534E-17

      iter #   8 total cpu time :  9345.1 secs   av.it.:  10.1
      thresh= 7.439E-10 alpha_mix =  0.700 |ddv_scf|^2 =  4.421E-19

     End of self-consistent calculation

     Convergence has been achieved 


     Representation #  32 mode #  32

     Self-consistent Calculation

      iter #   1 total cpu time :  9366.0 secs   av.it.:   3.0
      thresh= 1.000E-02 alpha_mix =  0.700 |ddv_scf|^2 =  2.063E-09

      iter #   2 total cpu time :  9394.5 secs   av.it.:  10.9
      thresh= 4.542E-06 alpha_mix =  0.700 |ddv_scf|^2 =  7.425E-10

      iter #   3 total cpu time :  9421.6 secs   av.it.:  10.0
      thresh= 2.725E-06 alpha_mix =  0.700 |ddv_scf|^2 =  1.550E-11

      iter #   4 total cpu time :  9449.4 secs   av.it.:  10.5
      thresh= 3.938E-07 alpha_mix =  0.700 |ddv_scf|^2 =  7.431E-13

      iter #   5 total cpu time :  9477.3 secs   av.it.:  10.6
      thresh= 8.621E-08 alpha_mix =  0.700 |ddv_scf|^2 =  1.360E-14

      iter #   6 total cpu time :  9505.9 secs   av.it.:  10.8
      thresh= 1.166E-08 alpha_mix =  0.700 |ddv_scf|^2 =  9.935E-17

      iter #   7 total cpu time :  9533.9 secs   av.it.:  10.5
      thresh= 9.968E-10 alpha_mix =  0.700 |ddv_scf|^2 =  7.360E-18

      iter #   8 total cpu time :  9560.9 secs   av.it.:  10.0
      thresh= 2.713E-10 alpha_mix =  0.700 |ddv_scf|^2 =  1.532E-19

     End of self-consistent calculation

     Convergence has been achieved 


     Representation #  33 mode #  33

     Self-consistent Calculation

      iter #   1 total cpu time :  9583.6 secs   av.it.:   4.7
      thresh= 1.000E-02 alpha_mix =  0.700 |ddv_scf|^2 =  4.459E-09

      iter #   2 total cpu time :  9614.4 secs   av.it.:  11.7
      thresh= 6.678E-06 alpha_mix =  0.700 |ddv_scf|^2 =  2.743E-09

      iter #   3 total cpu time :  9644.3 secs   av.it.:  11.1
      thresh= 5.237E-06 alpha_mix =  0.700 |ddv_scf|^2 =  1.125E-10

      iter #   4 total cpu time :  9674.2 secs   av.it.:  11.0
      thresh= 1.061E-06 alpha_mix =  0.700 |ddv_scf|^2 =  2.055E-11

      iter #   5 total cpu time :  9704.1 secs   av.it.:  11.3
      thresh= 4.533E-07 alpha_mix =  0.700 |ddv_scf|^2 =  5.601E-13

      iter #   6 total cpu time :  9734.4 secs   av.it.:  11.4
      thresh= 7.484E-08 alpha_mix =  0.700 |ddv_scf|^2 =  6.934E-14

      iter #   7 total cpu time :  9763.9 secs   av.it.:  11.0
      thresh= 2.633E-08 alpha_mix =  0.700 |ddv_scf|^2 =  2.398E-16

      iter #   8 total cpu time :  9793.9 secs   av.it.:  11.0
      thresh= 1.549E-09 alpha_mix =  0.700 |ddv_scf|^2 =  8.866E-18

      iter #   9 total cpu time :  9823.0 secs   av.it.:  11.0
      thresh= 2.978E-10 alpha_mix =  0.700 |ddv_scf|^2 =  1.347E-19

     End of self-consistent calculation

     Convergence has been achieved 


     Representation #  34 mode #  34

     Self-consistent Calculation

      iter #   1 total cpu time :  9847.2 secs   av.it.:   4.0
      thresh= 1.000E-02 alpha_mix =  0.700 |ddv_scf|^2 =  2.637E-09

      iter #   2 total cpu time :  9877.9 secs   av.it.:  11.7
      thresh= 5.135E-06 alpha_mix =  0.700 |ddv_scf|^2 =  1.970E-09

      iter #   3 total cpu time :  9907.6 secs   av.it.:  11.0
      thresh= 4.439E-06 alpha_mix =  0.700 |ddv_scf|^2 =  9.170E-11

      iter #   4 total cpu time :  9937.2 secs   av.it.:  11.0
      thresh= 9.576E-07 alpha_mix =  0.700 |ddv_scf|^2 =  1.056E-11

      iter #   5 total cpu time :  9967.2 secs   av.it.:  11.1
      thresh= 3.249E-07 alpha_mix =  0.700 |ddv_scf|^2 =  1.356E-13

      iter #   6 total cpu time :  9997.3 secs   av.it.:  11.5
      thresh= 3.682E-08 alpha_mix =  0.700 |ddv_scf|^2 =  2.055E-14

      iter #   7 total cpu time : 10026.9 secs   av.it.:  11.0
      thresh= 1.434E-08 alpha_mix =  0.700 |ddv_scf|^2 =  2.573E-16

      iter #   8 total cpu time : 10056.4 secs   av.it.:  11.0
      thresh= 1.604E-09 alpha_mix =  0.700 |ddv_scf|^2 =  7.993E-18

      iter #   9 total cpu time : 10085.7 secs   av.it.:  11.0
      thresh= 2.827E-10 alpha_mix =  0.700 |ddv_scf|^2 =  1.095E-19

     End of self-consistent calculation

     Convergence has been achieved 


     Representation #  35 mode #  35

     Self-consistent Calculation

      iter #   1 total cpu time : 10110.4 secs   av.it.:   4.3
      thresh= 1.000E-02 alpha_mix =  0.700 |ddv_scf|^2 =  3.781E-09

      iter #   2 total cpu time : 10140.5 secs   av.it.:  11.7
      thresh= 6.149E-06 alpha_mix =  0.700 |ddv_scf|^2 =  1.329E-09

      iter #   3 total cpu time : 10179.7 secs   av.it.:  11.5
      thresh= 3.646E-06 alpha_mix =  0.700 |ddv_scf|^2 =  2.124E-10

      iter #   4 total cpu time : 10209.6 secs   av.it.:  11.3
      thresh= 1.457E-06 alpha_mix =  0.700 |ddv_scf|^2 =  5.075E-12

      iter #   5 total cpu time : 10239.7 secs   av.it.:  11.4
      thresh= 2.253E-07 alpha_mix =  0.700 |ddv_scf|^2 =  1.801E-12

      iter #   6 total cpu time : 10269.1 secs   av.it.:  11.0
      thresh= 1.342E-07 alpha_mix =  0.700 |ddv_scf|^2 =  7.416E-16

      iter #   7 total cpu time : 10299.7 secs   av.it.:  11.8
      thresh= 2.723E-09 alpha_mix =  0.700 |ddv_scf|^2 =  3.315E-16

      iter #   8 total cpu time : 10329.5 secs   av.it.:  11.1
      thresh= 1.821E-09 alpha_mix =  0.700 |ddv_scf|^2 =  2.434E-17

      iter #   9 total cpu time : 10359.3 secs   av.it.:  11.0
      thresh= 4.934E-10 alpha_mix =  0.700 |ddv_scf|^2 =  3.846E-19

     End of self-consistent calculation

     Convergence has been achieved 


     Representation #  36 mode #  36

     Self-consistent Calculation

      iter #   1 total cpu time : 10382.2 secs   av.it.:   4.0
      thresh= 1.000E-02 alpha_mix =  0.700 |ddv_scf|^2 =  7.087E-10

      iter #   2 total cpu time : 10413.3 secs   av.it.:  11.9
      thresh= 2.662E-06 alpha_mix =  0.700 |ddv_scf|^2 =  7.931E-10

      iter #   3 total cpu time : 10442.9 secs   av.it.:  11.0
      thresh= 2.816E-06 alpha_mix =  0.700 |ddv_scf|^2 =  8.429E-12

      iter #   4 total cpu time : 10472.8 secs   av.it.:  11.0
      thresh= 2.903E-07 alpha_mix =  0.700 |ddv_scf|^2 =  2.028E-12

      iter #   5 total cpu time : 10502.5 secs   av.it.:  11.0
      thresh= 1.424E-07 alpha_mix =  0.700 |ddv_scf|^2 =  4.449E-14

      iter #   6 total cpu time : 10532.5 secs   av.it.:  11.3
      thresh= 2.109E-08 alpha_mix =  0.700 |ddv_scf|^2 =  3.559E-15

      iter #   7 total cpu time : 10562.2 secs   av.it.:  11.1
      thresh= 5.965E-09 alpha_mix =  0.700 |ddv_scf|^2 =  9.445E-17

      iter #   8 total cpu time : 10592.4 secs   av.it.:  11.4
      thresh= 9.719E-10 alpha_mix =  0.700 |ddv_scf|^2 =  1.073E-17

      iter #   9 total cpu time : 10622.3 secs   av.it.:  11.4
      thresh= 3.276E-10 alpha_mix =  0.700 |ddv_scf|^2 =  1.615E-18

      iter #  10 total cpu time : 10652.1 secs   av.it.:  11.0
      thresh= 1.271E-10 alpha_mix =  0.700 |ddv_scf|^2 =  6.457E-20

     End of self-consistent calculation

     Convergence has been achieved 


     Representation #  37 mode #  37

     Self-consistent Calculation

      iter #   1 total cpu time : 10675.0 secs   av.it.:   4.9
      thresh= 1.000E-02 alpha_mix =  0.700 |ddv_scf|^2 =  7.545E-09

      iter #   2 total cpu time : 10705.8 secs   av.it.:  11.9
      thresh= 8.686E-06 alpha_mix =  0.700 |ddv_scf|^2 =  8.281E-09

      iter #   3 total cpu time : 10735.3 secs   av.it.:  11.0
      thresh= 9.100E-06 alpha_mix =  0.700 |ddv_scf|^2 =  9.078E-11

      iter #   4 total cpu time : 10764.8 secs   av.it.:  11.0
      thresh= 9.528E-07 alpha_mix =  0.700 |ddv_scf|^2 =  8.809E-12

      iter #   5 total cpu time : 10794.7 secs   av.it.:  11.2
      thresh= 2.968E-07 alpha_mix =  0.700 |ddv_scf|^2 =  2.567E-13

      iter #   6 total cpu time : 10824.7 secs   av.it.:  11.2
      thresh= 5.067E-08 alpha_mix =  0.700 |ddv_scf|^2 =  7.350E-15

      iter #   7 total cpu time : 10854.8 secs   av.it.:  11.5
      thresh= 8.573E-09 alpha_mix =  0.700 |ddv_scf|^2 =  7.682E-16

      iter #   8 total cpu time : 10884.7 secs   av.it.:  11.0
      thresh= 2.772E-09 alpha_mix =  0.700 |ddv_scf|^2 =  6.635E-18

      iter #   9 total cpu time : 10912.8 secs   av.it.:  10.5
      thresh= 2.576E-10 alpha_mix =  0.700 |ddv_scf|^2 =  4.288E-19

     End of self-consistent calculation

     Convergence has been achieved 


     Representation #  38 mode #  38

     Self-consistent Calculation

      iter #   1 total cpu time : 10938.0 secs   av.it.:   5.0
      thresh= 1.000E-02 alpha_mix =  0.700 |ddv_scf|^2 =  6.403E-09

      iter #   2 total cpu time : 10969.0 secs   av.it.:  11.9
      thresh= 8.002E-06 alpha_mix =  0.700 |ddv_scf|^2 =  6.641E-09

      iter #   3 total cpu time : 10998.8 secs   av.it.:  11.0
      thresh= 8.149E-06 alpha_mix =  0.700 |ddv_scf|^2 =  9.809E-11

      iter #   4 total cpu time : 11028.6 secs   av.it.:  11.0
      thresh= 9.904E-07 alpha_mix =  0.700 |ddv_scf|^2 =  8.656E-12

      iter #   5 total cpu time : 11058.8 secs   av.it.:  11.3
      thresh= 2.942E-07 alpha_mix =  0.700 |ddv_scf|^2 =  4.308E-13

      iter #   6 total cpu time : 11088.4 secs   av.it.:  11.0
      thresh= 6.563E-08 alpha_mix =  0.700 |ddv_scf|^2 =  1.117E-14

      iter #   7 total cpu time : 11118.4 secs   av.it.:  11.4
      thresh= 1.057E-08 alpha_mix =  0.700 |ddv_scf|^2 =  8.555E-16

      iter #   8 total cpu time : 11148.2 secs   av.it.:  11.0
      thresh= 2.925E-09 alpha_mix =  0.700 |ddv_scf|^2 =  7.303E-18

      iter #   9 total cpu time : 11175.9 secs   av.it.:  10.2
      thresh= 2.702E-10 alpha_mix =  0.700 |ddv_scf|^2 =  1.204E-18

      iter #  10 total cpu time : 11205.5 secs   av.it.:  11.0
      thresh= 1.097E-10 alpha_mix =  0.700 |ddv_scf|^2 =  9.205E-21

     End of self-consistent calculation

     Convergence has been achieved 


     Representation #  39 mode #  39

     Self-consistent Calculation

      iter #   1 total cpu time : 11230.7 secs   av.it.:   5.0
      thresh= 1.000E-02 alpha_mix =  0.700 |ddv_scf|^2 =  5.618E-09

      iter #   2 total cpu time : 11261.5 secs   av.it.:  11.7
      thresh= 7.495E-06 alpha_mix =  0.700 |ddv_scf|^2 =  4.833E-09

      iter #   3 total cpu time : 11291.2 secs   av.it.:  11.0
      thresh= 6.952E-06 alpha_mix =  0.700 |ddv_scf|^2 =  1.067E-10

      iter #   4 total cpu time : 11321.2 secs   av.it.:  11.2
      thresh= 1.033E-06 alpha_mix =  0.700 |ddv_scf|^2 =  2.161E-11

      iter #   5 total cpu time : 11351.3 secs   av.it.:  11.3
      thresh= 4.649E-07 alpha_mix =  0.700 |ddv_scf|^2 =  6.252E-13

      iter #   6 total cpu time : 11381.5 secs   av.it.:  11.4
      thresh= 7.907E-08 alpha_mix =  0.700 |ddv_scf|^2 =  6.046E-14

      iter #   7 total cpu time : 11411.2 secs   av.it.:  11.0
      thresh= 2.459E-08 alpha_mix =  0.700 |ddv_scf|^2 =  3.262E-16

      iter #   8 total cpu time : 11441.1 secs   av.it.:  11.1
      thresh= 1.806E-09 alpha_mix =  0.700 |ddv_scf|^2 =  8.797E-18

      iter #   9 total cpu time : 11469.6 secs   av.it.:  10.7
      thresh= 2.966E-10 alpha_mix =  0.700 |ddv_scf|^2 =  4.586E-19

     End of self-consistent calculation

     Convergence has been achieved 


     Representation #  40 mode #  40

     Self-consistent Calculation

      iter #   1 total cpu time : 11491.3 secs   av.it.:   3.0
      thresh= 1.000E-02 alpha_mix =  0.700 |ddv_scf|^2 =  1.458E-10

      iter #   2 total cpu time : 11521.6 secs   av.it.:  11.4
      thresh= 1.207E-06 alpha_mix =  0.700 |ddv_scf|^2 =  4.678E-11

      iter #   3 total cpu time : 11552.3 secs   av.it.:  11.6
      thresh= 6.840E-07 alpha_mix =  0.700 |ddv_scf|^2 =  1.493E-11

      iter #   4 total cpu time : 11582.0 secs   av.it.:  11.1
      thresh= 3.864E-07 alpha_mix =  0.700 |ddv_scf|^2 =  2.937E-13

      iter #   5 total cpu time : 11611.9 secs   av.it.:  11.1
      thresh= 5.419E-08 alpha_mix =  0.700 |ddv_scf|^2 =  3.944E-14

      iter #   6 total cpu time : 11641.7 secs   av.it.:  11.1
      thresh= 1.986E-08 alpha_mix =  0.700 |ddv_scf|^2 =  3.468E-16

      iter #   7 total cpu time : 11671.9 secs   av.it.:  11.5
      thresh= 1.862E-09 alpha_mix =  0.700 |ddv_scf|^2 =  6.526E-17

      iter #   8 total cpu time : 11701.7 secs   av.it.:  11.1
      thresh= 8.079E-10 alpha_mix =  0.700 |ddv_scf|^2 =  1.854E-18

      iter #   9 total cpu time : 11731.6 secs   av.it.:  11.3
      thresh= 1.362E-10 alpha_mix =  0.700 |ddv_scf|^2 =  1.260E-19

     End of self-consistent calculation

     Convergence has been achieved 


     Representation #  41 mode #  41

     Self-consistent Calculation

      iter #   1 total cpu time : 11755.1 secs   av.it.:   5.0
      thresh= 1.000E-02 alpha_mix =  0.700 |ddv_scf|^2 =  3.156E-08

      iter #   2 total cpu time : 11785.2 secs   av.it.:  11.4
      thresh= 1.777E-05 alpha_mix =  0.700 |ddv_scf|^2 =  9.213E-08

      iter #   3 total cpu time : 11812.4 secs   av.it.:  10.0
      thresh= 3.035E-05 alpha_mix =  0.700 |ddv_scf|^2 =  2.662E-09

      iter #   4 total cpu time : 11841.2 secs   av.it.:  10.9
      thresh= 5.159E-06 alpha_mix =  0.700 |ddv_scf|^2 =  1.115E-10

      iter #   5 total cpu time : 11870.5 secs   av.it.:  11.0
      thresh= 1.056E-06 alpha_mix =  0.700 |ddv_scf|^2 =  5.343E-12

      iter #   6 total cpu time : 11899.7 secs   av.it.:  11.0
      thresh= 2.311E-07 alpha_mix =  0.700 |ddv_scf|^2 =  2.144E-13

      iter #   7 total cpu time : 11928.3 secs   av.it.:  11.0
      thresh= 4.630E-08 alpha_mix =  0.700 |ddv_scf|^2 =  3.645E-14

      iter #   8 total cpu time : 11957.1 secs   av.it.:  10.7
      thresh= 1.909E-08 alpha_mix =  0.700 |ddv_scf|^2 =  7.356E-15

      iter #   9 total cpu time : 11985.3 secs   av.it.:  10.6
      thresh= 8.577E-09 alpha_mix =  0.700 |ddv_scf|^2 =  5.821E-17

      iter #  10 total cpu time : 12014.9 secs   av.it.:  11.0
      thresh= 7.629E-10 alpha_mix =  0.700 |ddv_scf|^2 =  1.264E-17

      iter #  11 total cpu time : 12044.2 secs   av.it.:  11.0
      thresh= 3.555E-10 alpha_mix =  0.700 |ddv_scf|^2 =  8.572E-19

     End of self-consistent calculation

     Convergence has been achieved 


     Representation #  42 mode #  42

     Self-consistent Calculation

      iter #   1 total cpu time : 12069.8 secs   av.it.:   5.0
      thresh= 1.000E-02 alpha_mix =  0.700 |ddv_scf|^2 =  1.877E-08

      iter #   2 total cpu time : 12100.0 secs   av.it.:  11.5
      thresh= 1.370E-05 alpha_mix =  0.700 |ddv_scf|^2 =  1.937E-08

      iter #   3 total cpu time : 12128.7 secs   av.it.:  10.9
      thresh= 1.392E-05 alpha_mix =  0.700 |ddv_scf|^2 =  3.216E-10

      iter #   4 total cpu time : 12157.9 secs   av.it.:  11.0
      thresh= 1.793E-06 alpha_mix =  0.700 |ddv_scf|^2 =  2.993E-11

      iter #   5 total cpu time : 12187.5 secs   av.it.:  11.0
      thresh= 5.471E-07 alpha_mix =  0.700 |ddv_scf|^2 =  1.559E-11

      iter #   6 total cpu time : 12215.2 secs   av.it.:  10.3
      thresh= 3.948E-07 alpha_mix =  0.700 |ddv_scf|^2 =  1.026E-12

      iter #   7 total cpu time : 12244.4 secs   av.it.:  11.0
      thresh= 1.013E-07 alpha_mix =  0.700 |ddv_scf|^2 =  6.395E-13

      iter #   8 total cpu time : 12272.5 secs   av.it.:  10.4
      thresh= 7.997E-08 alpha_mix =  0.700 |ddv_scf|^2 =  4.956E-14

      iter #   9 total cpu time : 12300.9 secs   av.it.:  10.7
      thresh= 2.226E-08 alpha_mix =  0.700 |ddv_scf|^2 =  7.428E-16

      iter #  10 total cpu time : 12330.1 secs   av.it.:  11.0
      thresh= 2.725E-09 alpha_mix =  0.700 |ddv_scf|^2 =  2.077E-16

      iter #  11 total cpu time : 12358.2 secs   av.it.:  10.7
      thresh= 1.441E-09 alpha_mix =  0.700 |ddv_scf|^2 =  5.268E-18

      iter #  12 total cpu time : 12387.8 secs   av.it.:  11.2
      thresh= 2.295E-10 alpha_mix =  0.700 |ddv_scf|^2 =  5.103E-19

     End of self-consistent calculation

     Convergence has been achieved 


     Representation #  43 mode #  43

     Self-consistent Calculation

      iter #   1 total cpu time : 12410.0 secs   av.it.:   3.3
      thresh= 1.000E-02 alpha_mix =  0.700 |ddv_scf|^2 =  2.795E-09

      iter #   2 total cpu time : 12439.2 secs   av.it.:  11.0
      thresh= 5.287E-06 alpha_mix =  0.700 |ddv_scf|^2 =  1.498E-08

      iter #   3 total cpu time : 12464.9 secs   av.it.:   9.0
      thresh= 1.224E-05 alpha_mix =  0.700 |ddv_scf|^2 =  2.417E-10

      iter #   4 total cpu time : 12492.0 secs   av.it.:  10.0
      thresh= 1.555E-06 alpha_mix =  0.700 |ddv_scf|^2 =  3.539E-12

      iter #   5 total cpu time : 12521.2 secs   av.it.:  11.0
      thresh= 1.881E-07 alpha_mix =  0.700 |ddv_scf|^2 =  9.624E-13

      iter #   6 total cpu time : 12550.1 secs   av.it.:  11.0
      thresh= 9.810E-08 alpha_mix =  0.700 |ddv_scf|^2 =  2.569E-14

      iter #   7 total cpu time : 12579.3 secs   av.it.:  11.0
      thresh= 1.603E-08 alpha_mix =  0.700 |ddv_scf|^2 =  4.966E-15

      iter #   8 total cpu time : 12608.4 secs   av.it.:  11.0
      thresh= 7.047E-09 alpha_mix =  0.700 |ddv_scf|^2 =  1.208E-15

      iter #   9 total cpu time : 12636.5 secs   av.it.:  10.3
      thresh= 3.475E-09 alpha_mix =  0.700 |ddv_scf|^2 =  6.796E-18

      iter #  10 total cpu time : 12664.8 secs   av.it.:  10.7
      thresh= 2.607E-10 alpha_mix =  0.700 |ddv_scf|^2 =  1.630E-19

     End of self-consistent calculation

     Convergence has been achieved 


     Representation #  44 mode #  44

     Self-consistent Calculation

      iter #   1 total cpu time : 12688.8 secs   av.it.:   5.0
      thresh= 1.000E-02 alpha_mix =  0.700 |ddv_scf|^2 =  1.246E-07

      iter #   2 total cpu time : 12717.6 secs   av.it.:  10.9
      thresh= 3.530E-05 alpha_mix =  0.700 |ddv_scf|^2 =  4.257E-07

      iter #   3 total cpu time : 12743.8 secs   av.it.:   9.6
      thresh= 6.525E-05 alpha_mix =  0.700 |ddv_scf|^2 =  1.401E-09

      iter #   4 total cpu time : 12772.6 secs   av.it.:  10.9
      thresh= 3.744E-06 alpha_mix =  0.700 |ddv_scf|^2 =  1.944E-10

      iter #   5 total cpu time : 12801.4 secs   av.it.:  11.0
      thresh= 1.394E-06 alpha_mix =  0.700 |ddv_scf|^2 =  8.167E-12

      iter #   6 total cpu time : 12830.9 secs   av.it.:  11.0
      thresh= 2.858E-07 alpha_mix =  0.700 |ddv_scf|^2 =  3.284E-13

      iter #   7 total cpu time : 12860.9 secs   av.it.:  11.1
      thresh= 5.731E-08 alpha_mix =  0.700 |ddv_scf|^2 =  1.697E-13

      iter #   8 total cpu time : 12890.0 secs   av.it.:  11.0
      thresh= 4.120E-08 alpha_mix =  0.700 |ddv_scf|^2 =  4.271E-14

      iter #   9 total cpu time : 12917.3 secs   av.it.:  10.0
      thresh= 2.067E-08 alpha_mix =  0.700 |ddv_scf|^2 =  1.006E-15

      iter #  10 total cpu time : 12945.7 secs   av.it.:  10.6
      thresh= 3.172E-09 alpha_mix =  0.700 |ddv_scf|^2 =  1.166E-16

      iter #  11 total cpu time : 12975.3 secs   av.it.:  11.0
      thresh= 1.080E-09 alpha_mix =  0.700 |ddv_scf|^2 =  6.697E-17

      iter #  12 total cpu time : 13004.2 secs   av.it.:  10.8
      thresh= 8.183E-10 alpha_mix =  0.700 |ddv_scf|^2 =  8.211E-19

     End of self-consistent calculation

     Convergence has been achieved 


     Representation #  45 mode #  45

     Self-consistent Calculation

      iter #   1 total cpu time : 13030.3 secs   av.it.:   5.0
      thresh= 1.000E-02 alpha_mix =  0.700 |ddv_scf|^2 =  2.090E-07

      iter #   2 total cpu time : 13058.9 secs   av.it.:  10.7
      thresh= 4.571E-05 alpha_mix =  0.700 |ddv_scf|^2 =  7.013E-07

      iter #   3 total cpu time : 13085.5 secs   av.it.:   9.5
      thresh= 8.374E-05 alpha_mix =  0.700 |ddv_scf|^2 =  2.272E-09

      iter #   4 total cpu time : 13114.0 secs   av.it.:  10.7
      thresh= 4.766E-06 alpha_mix =  0.700 |ddv_scf|^2 =  1.082E-10

      iter #   5 total cpu time : 13142.6 secs   av.it.:  10.8
      thresh= 1.040E-06 alpha_mix =  0.700 |ddv_scf|^2 =  1.579E-11

      iter #   6 total cpu time : 13171.3 secs   av.it.:  11.0
      thresh= 3.973E-07 alpha_mix =  0.700 |ddv_scf|^2 =  1.360E-12

      iter #   7 total cpu time : 13200.7 secs   av.it.:  11.0
      thresh= 1.166E-07 alpha_mix =  0.700 |ddv_scf|^2 =  1.314E-13

      iter #   8 total cpu time : 13229.4 secs   av.it.:  11.0
      thresh= 3.625E-08 alpha_mix =  0.700 |ddv_scf|^2 =  8.117E-15

      iter #   9 total cpu time : 13257.9 secs   av.it.:  10.8
      thresh= 9.009E-09 alpha_mix =  0.700 |ddv_scf|^2 =  2.460E-15

      iter #  10 total cpu time : 13285.9 secs   av.it.:  10.1
      thresh= 4.960E-09 alpha_mix =  0.700 |ddv_scf|^2 =  7.609E-17

      iter #  11 total cpu time : 13314.5 secs   av.it.:  10.8
      thresh= 8.723E-10 alpha_mix =  0.700 |ddv_scf|^2 =  2.788E-18

      iter #  12 total cpu time : 13343.5 secs   av.it.:  10.9
      thresh= 1.670E-10 alpha_mix =  0.700 |ddv_scf|^2 =  2.105E-19

     End of self-consistent calculation

     Convergence has been achieved 


     Representation #  46 mode #  46

     Self-consistent Calculation

      iter #   1 total cpu time : 13369.1 secs   av.it.:   5.0
      thresh= 1.000E-02 alpha_mix =  0.700 |ddv_scf|^2 =  2.630E-08

      iter #   2 total cpu time : 13399.0 secs   av.it.:  11.4
      thresh= 1.622E-05 alpha_mix =  0.700 |ddv_scf|^2 =  5.889E-08

      iter #   3 total cpu time : 13426.4 secs   av.it.:  10.0
      thresh= 2.427E-05 alpha_mix =  0.700 |ddv_scf|^2 =  3.402E-09

      iter #   4 total cpu time : 13453.6 secs   av.it.:  10.0
      thresh= 5.832E-06 alpha_mix =  0.700 |ddv_scf|^2 =  1.215E-10

      iter #   5 total cpu time : 13483.1 secs   av.it.:  11.0
      thresh= 1.102E-06 alpha_mix =  0.700 |ddv_scf|^2 =  9.679E-11

      iter #   6 total cpu time : 13510.7 secs   av.it.:  10.0
      thresh= 9.838E-07 alpha_mix =  0.700 |ddv_scf|^2 =  1.581E-12

      iter #   7 total cpu time : 13538.9 secs   av.it.:  10.6
      thresh= 1.257E-07 alpha_mix =  0.700 |ddv_scf|^2 =  2.786E-13

      iter #   8 total cpu time : 13567.9 secs   av.it.:  11.0
      thresh= 5.278E-08 alpha_mix =  0.700 |ddv_scf|^2 =  1.238E-13

      iter #   9 total cpu time : 13595.8 secs   av.it.:  10.3
      thresh= 3.519E-08 alpha_mix =  0.700 |ddv_scf|^2 =  6.344E-15

      iter #  10 total cpu time : 13623.7 secs   av.it.:  10.2
      thresh= 7.965E-09 alpha_mix =  0.700 |ddv_scf|^2 =  3.532E-16

      iter #  11 total cpu time : 13651.5 secs   av.it.:  10.0
      thresh= 1.879E-09 alpha_mix =  0.700 |ddv_scf|^2 =  1.276E-18

      iter #  12 total cpu time : 13679.8 secs   av.it.:  10.6
      thresh= 1.129E-10 alpha_mix =  0.700 |ddv_scf|^2 =  1.641E-19

     End of self-consistent calculation

     Convergence has been achieved 


     Representation #  47 mode #  47

     Self-consistent Calculation

      iter #   1 total cpu time : 13702.6 secs   av.it.:   4.0
      thresh= 1.000E-02 alpha_mix =  0.700 |ddv_scf|^2 =  3.438E-09

      iter #   2 total cpu time : 13732.2 secs   av.it.:  11.0
      thresh= 5.863E-06 alpha_mix =  0.700 |ddv_scf|^2 =  2.038E-08

      iter #   3 total cpu time : 13758.0 secs   av.it.:   9.1
      thresh= 1.428E-05 alpha_mix =  0.700 |ddv_scf|^2 =  5.427E-10

      iter #   4 total cpu time : 13785.9 secs   av.it.:  10.0
      thresh= 2.330E-06 alpha_mix =  0.700 |ddv_scf|^2 =  3.453E-11

      iter #   5 total cpu time : 13814.3 secs   av.it.:  10.7
      thresh= 5.876E-07 alpha_mix =  0.700 |ddv_scf|^2 =  3.688E-12

      iter #   6 total cpu time : 13842.1 secs   av.it.:  10.2
      thresh= 1.920E-07 alpha_mix =  0.700 |ddv_scf|^2 =  1.837E-13

      iter #   7 total cpu time : 13871.6 secs   av.it.:  11.0
      thresh= 4.286E-08 alpha_mix =  0.700 |ddv_scf|^2 =  1.369E-13

      iter #   8 total cpu time : 13899.8 secs   av.it.:  10.2
      thresh= 3.700E-08 alpha_mix =  0.700 |ddv_scf|^2 =  2.987E-15

      iter #   9 total cpu time : 13927.7 secs   av.it.:  10.1
      thresh= 5.466E-09 alpha_mix =  0.700 |ddv_scf|^2 =  7.397E-18

      iter #  10 total cpu time : 13957.2 secs   av.it.:  11.0
      thresh= 2.720E-10 alpha_mix =  0.700 |ddv_scf|^2 =  6.726E-19

     End of self-consistent calculation

     Convergence has been achieved 


     Representation #  48 mode #  48

     Self-consistent Calculation

      iter #   1 total cpu time : 13980.9 secs   av.it.:   5.0
      thresh= 1.000E-02 alpha_mix =  0.700 |ddv_scf|^2 =  1.375E-08

      iter #   2 total cpu time : 14011.3 secs   av.it.:  11.6
      thresh= 1.173E-05 alpha_mix =  0.700 |ddv_scf|^2 =  1.078E-08

      iter #   3 total cpu time : 14040.2 secs   av.it.:  11.0
      thresh= 1.038E-05 alpha_mix =  0.700 |ddv_scf|^2 =  2.372E-10

      iter #   4 total cpu time : 14069.5 secs   av.it.:  11.0
      thresh= 1.540E-06 alpha_mix =  0.700 |ddv_scf|^2 =  9.681E-11

      iter #   5 total cpu time : 14097.3 secs   av.it.:  10.1
      thresh= 9.839E-07 alpha_mix =  0.700 |ddv_scf|^2 =  2.864E-11

      iter #   6 total cpu time : 14123.8 secs   av.it.:  10.0
      thresh= 5.351E-07 alpha_mix =  0.700 |ddv_scf|^2 =  9.717E-13

      iter #   7 total cpu time : 14153.6 secs   av.it.:  11.1
      thresh= 9.857E-08 alpha_mix =  0.700 |ddv_scf|^2 =  7.690E-13

      iter #   8 total cpu time : 14181.8 secs   av.it.:  10.8
      thresh= 8.769E-08 alpha_mix =  0.700 |ddv_scf|^2 =  1.139E-13

      iter #   9 total cpu time : 14209.7 secs   av.it.:  10.0
      thresh= 3.374E-08 alpha_mix =  0.700 |ddv_scf|^2 =  7.461E-15

      iter #  10 total cpu time : 14238.0 secs   av.it.:  10.6
      thresh= 8.638E-09 alpha_mix =  0.700 |ddv_scf|^2 =  2.604E-15

      iter #  11 total cpu time : 14265.3 secs   av.it.:  10.0
      thresh= 5.103E-09 alpha_mix =  0.700 |ddv_scf|^2 =  2.668E-17

      iter #  12 total cpu time : 14292.1 secs   av.it.:   9.9
      thresh= 5.166E-10 alpha_mix =  0.700 |ddv_scf|^2 =  3.734E-19

     End of self-consistent calculation

     Convergence has been achieved 
 
     Number of q in the star =    1
     List of q in the star:
          1   0.000000000   0.000000000   0.000000000

          Dielectric constant in cartesian axis 

          (       2.923252789       0.000000000       0.000000000 )
          (       0.000000000       1.302372812       0.000000000 )
          (       0.000000000       0.000000000       1.094208595 )

          Effective charges (d Force / dE) in cartesian axis

           atom      1   C  
      Ex  (       -0.36536       -0.27621        0.00000 )
      Ey  (       -0.06643        0.04931        0.00000 )
      Ez  (        0.00000        0.00000       -0.11444 )
           atom      2   C  
      Ex  (        0.51747        0.08992        0.00000 )
      Ey  (        0.10258       -0.04040        0.00000 )
[...]
      thresh= 7.620E-09 alpha_mix =  0.700 |ddv_scf|^2 =  4.960E-16

      iter #  12 total cpu time : 77188.2 secs   av.it.:  11.0
      thresh= 2.227E-09 alpha_mix =  0.700 |ddv_scf|^2 =  9.238E-17

      iter #  13 total cpu time : 77245.6 secs   av.it.:  11.1
      thresh= 9.611E-10 alpha_mix =  0.700 |ddv_scf|^2 =  2.265E-17

      iter #  14 total cpu time : 77303.0 secs   av.it.:  11.1
      thresh= 4.760E-10 alpha_mix =  0.700 |ddv_scf|^2 =  6.325E-18

      iter #  15 total cpu time : 77360.7 secs   av.it.:  11.1
      thresh= 2.515E-10 alpha_mix =  0.700 |ddv_scf|^2 =  6.162E-18

      iter #  16 total cpu time : 77414.3 secs   av.it.:  10.1
      thresh= 2.482E-10 alpha_mix =  0.700 |ddv_scf|^2 =  9.598E-19

     End of self-consistent calculation

     Convergence has been achieved 


     Representation #  46 mode #  46

     Self-consistent Calculation

      iter #   1 total cpu time : 77447.2 secs   av.it.:   5.0
      thresh= 1.000E-02 alpha_mix =  0.700 |ddv_scf|^2 =  2.473E-08

      iter #   2 total cpu time : 77506.8 secs   av.it.:  11.7
      thresh= 1.573E-05 alpha_mix =  0.700 |ddv_scf|^2 =  5.345E-08

      iter #   3 total cpu time : 77561.0 secs   av.it.:  10.7
      thresh= 2.312E-05 alpha_mix =  0.700 |ddv_scf|^2 =  1.181E-09

      iter #   4 total cpu time : 77616.9 secs   av.it.:  11.0
      thresh= 3.436E-06 alpha_mix =  0.700 |ddv_scf|^2 =  2.190E-10

      iter #   5 total cpu time : 77671.6 secs   av.it.:  10.8
      thresh= 1.480E-06 alpha_mix =  0.700 |ddv_scf|^2 =  2.306E-11

      iter #   6 total cpu time : 77728.7 secs   av.it.:  11.0
      thresh= 4.802E-07 alpha_mix =  0.700 |ddv_scf|^2 =  2.515E-12

      iter #   7 total cpu time : 77786.3 secs   av.it.:  11.0
      thresh= 1.586E-07 alpha_mix =  0.700 |ddv_scf|^2 =  3.798E-13

      iter #   8 total cpu time : 77844.2 secs   av.it.:  11.1
      thresh= 6.163E-08 alpha_mix =  0.700 |ddv_scf|^2 =  1.022E-13

      iter #   9 total cpu time : 77901.6 secs   av.it.:  11.0
      thresh= 3.198E-08 alpha_mix =  0.700 |ddv_scf|^2 =  3.080E-14

      iter #  10 total cpu time : 77955.7 secs   av.it.:  10.2
      thresh= 1.755E-08 alpha_mix =  0.700 |ddv_scf|^2 =  1.325E-15

      iter #  11 total cpu time : 78014.0 secs   av.it.:  11.3
      thresh= 3.640E-09 alpha_mix =  0.700 |ddv_scf|^2 =  1.317E-15

      iter #  12 total cpu time : 78069.4 secs   av.it.:  11.0
      thresh= 3.629E-09 alpha_mix =  0.700 |ddv_scf|^2 =  4.445E-17

      iter #  13 total cpu time : 78126.4 secs   av.it.:  11.0
      thresh= 6.667E-10 alpha_mix =  0.700 |ddv_scf|^2 =  1.358E-17

      iter #  14 total cpu time : 78183.8 secs   av.it.:  11.0
      thresh= 3.685E-10 alpha_mix =  0.700 |ddv_scf|^2 =  3.886E-18

      iter #  15 total cpu time : 78241.5 secs   av.it.:  11.1
      thresh= 1.971E-10 alpha_mix =  0.700 |ddv_scf|^2 =  2.246E-18

      iter #  16 total cpu time : 78296.5 secs   av.it.:  10.9
      thresh= 1.499E-10 alpha_mix =  0.700 |ddv_scf|^2 =  2.624E-19

     End of self-consistent calculation

     Convergence has been achieved 


     Representation #  47 mode #  47

     Self-consistent Calculation

      iter #   1 total cpu time : 78322.2 secs   av.it.:   3.2
      thresh= 1.000E-02 alpha_mix =  0.700 |ddv_scf|^2 =  9.503E-10

      iter #   2 total cpu time : 78380.5 secs   av.it.:  11.3
      thresh= 3.083E-06 alpha_mix =  0.700 |ddv_scf|^2 =  1.427E-09

      iter #   3 total cpu time : 78436.2 secs   av.it.:  10.9
      thresh= 3.777E-06 alpha_mix =  0.700 |ddv_scf|^2 =  1.008E-10

      iter #   4 total cpu time : 78490.8 secs   av.it.:  10.8
      thresh= 1.004E-06 alpha_mix =  0.700 |ddv_scf|^2 =  2.288E-11

      iter #   5 total cpu time : 78545.7 secs   av.it.:  10.9
      thresh= 4.783E-07 alpha_mix =  0.700 |ddv_scf|^2 =  7.280E-13

      iter #   6 total cpu time : 78602.5 secs   av.it.:  11.0
      thresh= 8.532E-08 alpha_mix =  0.700 |ddv_scf|^2 =  1.660E-13

      iter #   7 total cpu time : 78659.4 secs   av.it.:  11.0
      thresh= 4.074E-08 alpha_mix =  0.700 |ddv_scf|^2 =  1.703E-14

      iter #   8 total cpu time : 78716.5 secs   av.it.:  11.0
      thresh= 1.305E-08 alpha_mix =  0.700 |ddv_scf|^2 =  4.248E-15

      iter #   9 total cpu time : 78773.8 secs   av.it.:  11.0
      thresh= 6.518E-09 alpha_mix =  0.700 |ddv_scf|^2 =  6.636E-16

      iter #  10 total cpu time : 78827.6 secs   av.it.:  10.1
      thresh= 2.576E-09 alpha_mix =  0.700 |ddv_scf|^2 =  9.109E-17

      iter #  11 total cpu time : 78884.3 secs   av.it.:  11.0
      thresh= 9.544E-10 alpha_mix =  0.700 |ddv_scf|^2 =  3.430E-17

      iter #  12 total cpu time : 78939.8 secs   av.it.:  11.0
      thresh= 5.857E-10 alpha_mix =  0.700 |ddv_scf|^2 =  1.725E-18

      iter #  13 total cpu time : 78997.4 secs   av.it.:  11.1
      thresh= 1.313E-10 alpha_mix =  0.700 |ddv_scf|^2 =  7.824E-19

     End of self-consistent calculation

     Convergence has been achieved 


     Representation #  48 mode #  48

     Self-consistent Calculation

      iter #   1 total cpu time : 79030.3 secs   av.it.:   5.0
      thresh= 1.000E-02 alpha_mix =  0.700 |ddv_scf|^2 =  4.218E-08

      iter #   2 total cpu time : 79088.9 secs   av.it.:  11.2
      thresh= 2.054E-05 alpha_mix =  0.700 |ddv_scf|^2 =  1.288E-07

      iter #   3 total cpu time : 79142.3 secs   av.it.:  10.0
      thresh= 3.589E-05 alpha_mix =  0.700 |ddv_scf|^2 =  1.205E-09

      iter #   4 total cpu time : 79198.4 secs   av.it.:  11.0
      thresh= 3.471E-06 alpha_mix =  0.700 |ddv_scf|^2 =  1.776E-10

      iter #   5 total cpu time : 79253.5 secs   av.it.:  11.0
      thresh= 1.333E-06 alpha_mix =  0.700 |ddv_scf|^2 =  2.045E-11

      iter #   6 total cpu time : 79310.9 secs   av.it.:  11.0
      thresh= 4.523E-07 alpha_mix =  0.700 |ddv_scf|^2 =  1.984E-12

      iter #   7 total cpu time : 79368.9 secs   av.it.:  11.2
      thresh= 1.408E-07 alpha_mix =  0.700 |ddv_scf|^2 =  3.234E-13

      iter #   8 total cpu time : 79427.4 secs   av.it.:  11.3
      thresh= 5.687E-08 alpha_mix =  0.700 |ddv_scf|^2 =  1.431E-13

      iter #   9 total cpu time : 79483.5 secs   av.it.:  11.0
      thresh= 3.782E-08 alpha_mix =  0.700 |ddv_scf|^2 =  5.165E-14

      iter #  10 total cpu time : 79538.3 secs   av.it.:  10.8
      thresh= 2.273E-08 alpha_mix =  0.700 |ddv_scf|^2 =  5.621E-15

      iter #  11 total cpu time : 79593.8 secs   av.it.:  11.0
      thresh= 7.497E-09 alpha_mix =  0.700 |ddv_scf|^2 =  4.734E-16

      iter #  12 total cpu time : 79650.4 secs   av.it.:  11.0
      thresh= 2.176E-09 alpha_mix =  0.700 |ddv_scf|^2 =  9.078E-17

      iter #  13 total cpu time : 79708.4 secs   av.it.:  11.0
      thresh= 9.528E-10 alpha_mix =  0.700 |ddv_scf|^2 =  2.240E-17

      iter #  14 total cpu time : 79766.1 secs   av.it.:  11.1
      thresh= 4.733E-10 alpha_mix =  0.700 |ddv_scf|^2 =  6.117E-18

      iter #  15 total cpu time : 79824.2 secs   av.it.:  11.2
      thresh= 2.473E-10 alpha_mix =  0.700 |ddv_scf|^2 =  5.984E-18

      iter #  16 total cpu time : 79877.9 secs   av.it.:  10.1
      thresh= 2.446E-10 alpha_mix =  0.700 |ddv_scf|^2 =  9.270E-19

     End of self-consistent calculation

     Convergence has been achieved 
 
     Number of q in the star =    2
     List of q in the star:
          1   0.400000000   0.000000000   0.000000000
          2  -0.400000000   0.000000000   0.000000000

     Diagonalizing the dynamical matrix

     q = (    0.400000000   0.000000000   0.000000000 ) 

 **************************************************************************
     freq (    1) =       2.612847 [THz] =      87.155190 [cm-1]
     freq (    2) =       2.821263 [THz] =      94.107206 [cm-1]
     freq (    3) =       4.640775 [THz] =     154.799584 [cm-1]
     freq (    4) =       6.333445 [THz] =     211.260994 [cm-1]
     freq (    5) =       8.622612 [THz] =     287.619370 [cm-1]
     freq (    6) =       8.837572 [THz] =     294.789672 [cm-1]
     freq (    7) =       9.125810 [THz] =     304.404244 [cm-1]
     freq (    8) =      12.397359 [THz] =     413.531372 [cm-1]
     freq (    9) =      13.601234 [THz] =     453.688320 [cm-1]
     freq (   10) =      15.003633 [THz] =     500.467325 [cm-1]
     freq (   11) =      15.421786 [THz] =     514.415398 [cm-1]
     freq (   12) =      16.656691 [THz] =     555.607417 [cm-1]
     freq (   13) =      17.085678 [THz] =     569.916889 [cm-1]
     freq (   14) =      18.227118 [THz] =     607.991200 [cm-1]
     freq (   15) =      19.069504 [THz] =     636.090174 [cm-1]
     freq (   16) =      20.160191 [THz] =     672.471588 [cm-1]
     freq (   17) =      20.183526 [THz] =     673.249958 [cm-1]
     freq (   18) =      20.215310 [THz] =     674.310147 [cm-1]
     freq (   19) =      23.248125 [THz] =     775.473989 [cm-1]
     freq (   20) =      23.387194 [THz] =     780.112819 [cm-1]
     freq (   21) =      23.750227 [THz] =     792.222298 [cm-1]
     freq (   22) =      24.716842 [THz] =     824.465120 [cm-1]
     freq (   23) =      25.346978 [THz] =     845.484164 [cm-1]
     freq (   24) =      26.486092 [THz] =     883.480944 [cm-1]
     freq (   25) =      28.402005 [THz] =     947.388913 [cm-1]
     freq (   26) =      28.407699 [THz] =     947.578833 [cm-1]
     freq (   27) =      30.247141 [THz] =    1008.936013 [cm-1]
     freq (   28) =      31.892689 [THz] =    1063.825602 [cm-1]
     freq (   29) =      34.212764 [THz] =    1141.214967 [cm-1]
     freq (   30) =      34.656777 [THz] =    1156.025648 [cm-1]
     freq (   31) =      37.709678 [THz] =    1257.859470 [cm-1]
     freq (   32) =      38.082354 [THz] =    1270.290580 [cm-1]
     freq (   33) =      39.516833 [THz] =    1318.139680 [cm-1]
     freq (   34) =      40.536525 [THz] =    1352.152917 [cm-1]
     freq (   35) =      40.782949 [THz] =    1360.372754 [cm-1]
     freq (   36) =      41.357692 [THz] =    1379.544105 [cm-1]
     freq (   37) =      42.064137 [THz] =    1403.108569 [cm-1]
     freq (   38) =      43.208000 [THz] =    1441.263734 [cm-1]
     freq (   39) =      43.500493 [THz] =    1451.020247 [cm-1]
     freq (   40) =      44.895533 [THz] =    1497.553783 [cm-1]
     freq (   41) =      46.182818 [THz] =    1540.492988 [cm-1]
     freq (   42) =      46.363290 [THz] =    1546.512872 [cm-1]
     freq (   43) =      47.956602 [THz] =    1599.660048 [cm-1]
     freq (   44) =      48.146315 [THz] =    1605.988212 [cm-1]
     freq (   45) =      93.910081 [THz] =    3132.503113 [cm-1]
     freq (   46) =      93.913174 [THz] =    3132.606287 [cm-1]
     freq (   47) =      94.215182 [THz] =    3142.680187 [cm-1]
     freq (   48) =      94.216108 [THz] =    3142.711079 [cm-1]
 **************************************************************************

     Mode symmetry, C_2v (mm2)  point group:

     freq (   1-   1) =         87.2  [cm-1]   --> A_2  D_2  S_2      
     freq (   2-   2) =         94.1  [cm-1]   --> B_1  D_3  S_3      
     freq (   3-   3) =        154.8  [cm-1]   --> B_1  D_3  S_3      
     freq (   4-   4) =        211.3  [cm-1]   --> A_2  D_2  S_2      
     freq (   5-   5) =        287.6  [cm-1]   --> B_1  D_3  S_3      
     freq (   6-   6) =        294.8  [cm-1]   --> B_2  D_4  S_4      
     freq (   7-   7) =        304.4  [cm-1]   --> A_2  D_2  S_2      
     freq (   8-   8) =        413.5  [cm-1]   --> A_1  D_1  S_1      
     freq (   9-   9) =        453.7  [cm-1]   --> A_1  D_1  S_1      
     freq (  10-  10) =        500.5  [cm-1]   --> B_2  D_4  S_4      
     freq (  11-  11) =        514.4  [cm-1]   --> A_2  D_2  S_2      
     freq (  12-  12) =        555.6  [cm-1]   --> B_1  D_3  S_3      
     freq (  13-  13) =        569.9  [cm-1]   --> A_1  D_1  S_1      
     freq (  14-  14) =        608.0  [cm-1]   --> B_2  D_4  S_4      
     freq (  15-  15) =        636.1  [cm-1]   --> B_1  D_3  S_3      
     freq (  16-  16) =        672.5  [cm-1]   --> A_1  D_1  S_1      
     freq (  17-  17) =        673.2  [cm-1]   --> B_2  D_4  S_4      
     freq (  18-  18) =        674.3  [cm-1]   --> A_2  D_2  S_2      
     freq (  19-  19) =        775.5  [cm-1]   --> A_1  D_1  S_1      
     freq (  20-  20) =        780.1  [cm-1]   --> A_2  D_2  S_2      
     freq (  21-  21) =        792.2  [cm-1]   --> B_1  D_3  S_3      
     freq (  22-  22) =        824.5  [cm-1]   --> A_2  D_2  S_2      
     freq (  23-  23) =        845.5  [cm-1]   --> B_1  D_3  S_3      
     freq (  24-  24) =        883.5  [cm-1]   --> B_2  D_4  S_4      
     freq (  25-  25) =        947.4  [cm-1]   --> A_2  D_2  S_2      
     freq (  26-  26) =        947.6  [cm-1]   --> B_1  D_3  S_3      
     freq (  27-  27) =       1008.9  [cm-1]   --> B_2  D_4  S_4      
     freq (  28-  28) =       1063.8  [cm-1]   --> A_1  D_1  S_1      
     freq (  29-  29) =       1141.2  [cm-1]   --> A_1  D_1  S_1      
     freq (  30-  30) =       1156.0  [cm-1]   --> B_2  D_4  S_4      
     freq (  31-  31) =       1257.9  [cm-1]   --> A_1  D_1  S_1      
     freq (  32-  32) =       1270.3  [cm-1]   --> B_2  D_4  S_4      
     freq (  33-  33) =       1318.1  [cm-1]   --> A_1  D_1  S_1      
     freq (  34-  34) =       1352.2  [cm-1]   --> B_2  D_4  S_4      
     freq (  35-  35) =       1360.4  [cm-1]   --> B_2  D_4  S_4      
     freq (  36-  36) =       1379.5  [cm-1]   --> A_1  D_1  S_1      
     freq (  37-  37) =       1403.1  [cm-1]   --> A_1  D_1  S_1      
     freq (  38-  38) =       1441.3  [cm-1]   --> B_2  D_4  S_4      
     freq (  39-  39) =       1451.0  [cm-1]   --> B_2  D_4  S_4      
     freq (  40-  40) =       1497.6  [cm-1]   --> A_1  D_1  S_1      
     freq (  41-  41) =       1540.5  [cm-1]   --> A_1  D_1  S_1      
     freq (  42-  42) =       1546.5  [cm-1]   --> B_2  D_4  S_4      
     freq (  43-  43) =       1599.7  [cm-1]   --> B_2  D_4  S_4      
     freq (  44-  44) =       1606.0  [cm-1]   --> A_1  D_1  S_1      
     freq (  45-  45) =       3132.5  [cm-1]   --> A_1  D_1  S_1      
     freq (  46-  46) =       3132.6  [cm-1]   --> B_2  D_4  S_4      
     freq (  47-  47) =       3142.7  [cm-1]   --> A_1  D_1  S_1      
     freq (  48-  48) =       3142.7  [cm-1]   --> B_2  D_4  S_4      
 
     init_run     :      1.33s CPU      1.38s WALL (       2 calls)
     electrons    :    224.61s CPU    237.75s WALL (       2 calls)

     Called by init_run:
     wfcinit      :      0.00s CPU      0.01s WALL (       2 calls)
     potinit      :      0.13s CPU      0.16s WALL (       2 calls)
     hinit0       :      0.31s CPU      0.32s WALL (       2 calls)

     Called by electrons:
     c_bands      :    224.61s CPU    237.74s WALL (       2 calls)
     v_of_rho     :      0.09s CPU      0.11s WALL (       3 calls)
     newd         :      0.07s CPU      0.08s WALL (       3 calls)

     Called by c_bands:
     init_us_2    :    220.43s CPU    224.35s WALL (   64621 calls)
     cegterg      :    195.28s CPU    206.31s WALL (     160 calls)

     Called by *egterg:
     cdiaghg      :     20.19s CPU     20.40s WALL (    2584 calls)
     h_psi        :  41626.23s CPU  45440.61s WALL (  892842 calls)
     s_psi        :   7066.79s CPU   7123.26s WALL ( 1841567 calls)
     g_psi        :      1.35s CPU      1.37s WALL (    2424 calls)

     Called by h_psi:
     h_psi:calbec :   3320.40s CPU   3393.19s WALL (  892842 calls)
     vloc_psi     :  34082.66s CPU  37768.60s WALL (  892842 calls)
     add_vuspsi   :   3390.55s CPU   3436.93s WALL (  892842 calls)

     General routines
     calbec       :   7496.59s CPU   7602.71s WALL ( 1974148 calls)
     fft          :     56.11s CPU     60.33s WALL (   22211 calls)
     ffts         :     25.08s CPU     27.62s WALL (   12864 calls)
     fftw         :  37814.72s CPU  41987.75s WALL (39760074 calls)
     davcio       :     86.85s CPU    352.94s WALL (  329263 calls)
 
     Parallel routines
     fft_scatt_xy :   4253.99s CPU   4599.30s WALL (39795149 calls)
     fft_scatt_yz :  22922.41s CPU  25903.52s WALL (39795149 calls)
 
     PHONON       :     20h44m CPU     22h11m WALL

     INITIALIZATION: 
     phq_setup    :      0.20s CPU      0.23s WALL (       3 calls)
     phq_init     :    343.29s CPU    360.50s WALL (       3 calls)
 
     phq_init     :    343.29s CPU    360.50s WALL (       3 calls)
     init_vloc    :      0.26s CPU      0.26s WALL (       3 calls)
     init_us_1    :      0.14s CPU      0.14s WALL (       3 calls)
     newd         :      0.07s CPU      0.08s WALL (       3 calls)
     dvanqq       :     20.10s CPU     20.15s WALL (       3 calls)
     drho         :    314.53s CPU    331.30s WALL (       3 calls)
 
     DYNAMICAL MATRIX:
     dynmat0      :      5.38s CPU      5.54s WALL (       3 calls)
     phqscf       :  72370.39s CPU  77442.96s WALL (       3 calls)
     dynmatrix    :      0.13s CPU      0.17s WALL (       3 calls)
 
     phqscf       :  72370.39s CPU  77442.96s WALL (       3 calls)
     solve_linter :  71884.57s CPU  76920.45s WALL (     143 calls)
     drhodv       :    152.64s CPU    160.57s WALL (     143 calls)
 
     dynmat0      :      5.38s CPU      5.54s WALL (       3 calls)
     dynmat_us    :      4.51s CPU      4.62s WALL (       3 calls)
     d2ionq       :      0.86s CPU      0.86s WALL (       3 calls)
 
     dynmat_us    :      4.51s CPU      4.62s WALL (       3 calls)
     addusdynmat  :      0.00s CPU      0.00s WALL (       3 calls)
 
     phqscf       :  72370.39s CPU  77442.96s WALL (       3 calls)
     solve_linter :  71884.57s CPU  76920.45s WALL (     143 calls)
 
     solve_linter :  71884.57s CPU  76920.45s WALL (     143 calls)
     dvqpsi_us    :    451.49s CPU    488.30s WALL (    5856 calls)
     ortho        :    855.03s CPU    864.67s WALL (   58564 calls)
     cgsolve      :  62453.39s CPU  66438.17s WALL (   58564 calls)
     incdrhoscf   :   4585.53s CPU   4974.14s WALL (   58564 calls)
     addusddens   :    193.09s CPU    195.08s WALL (    1772 calls)
     vpsifft      :   3057.02s CPU   3397.01s WALL (   52708 calls)
     dv_of_drho   :     64.08s CPU     68.61s WALL (    1694 calls)
     mix_pot      :      8.17s CPU     16.78s WALL (    1644 calls)
     psymdvscf    :    504.05s CPU    529.14s WALL (    1629 calls)
     newdq        :    167.06s CPU    168.19s WALL (    1644 calls)
     adddvscf     :    518.72s CPU    524.45s WALL (   53590 calls)
     drhodvus     :      1.72s CPU      3.10s WALL (     143 calls)
 
     dvqpsi_us    :    451.49s CPU    488.30s WALL (    5856 calls)
     dvqpsi_us_on :    109.18s CPU    109.97s WALL (    5856 calls)
 
     cgsolve      :  62453.39s CPU  66438.17s WALL (   58564 calls)
     ch_psi       :  58865.33s CPU  62814.93s WALL (  890098 calls)
 
     ch_psi       :  58865.33s CPU  62814.93s WALL (  890098 calls)
     h_psi        :  41626.23s CPU  45440.61s WALL (  892842 calls)
     last         :  12356.79s CPU  12454.54s WALL (  890098 calls)
 
     h_psi        :  41626.23s CPU  45440.61s WALL (  892842 calls)
     add_vuspsi   :   3390.55s CPU   3436.93s WALL (  892842 calls)
 
     incdrhoscf   :   4585.53s CPU   4974.14s WALL (   58564 calls)
     addusdbec    :    298.50s CPU    302.79s WALL (   63412 calls)
 
     drhodvus     :      1.72s CPU      3.10s WALL (     143 calls)
 
      General routines
     calbec       :   7496.59s CPU   7602.71s WALL ( 1974148 calls)
     fft          :     56.11s CPU     60.33s WALL (   22211 calls)
     ffts         :     25.08s CPU     27.62s WALL (   12864 calls)
     fftw         :  37814.72s CPU  41987.75s WALL (39760074 calls)
     davcio       :     86.85s CPU    352.94s WALL (  329263 calls)
     write_rec    :      1.37s CPU     82.60s WALL (    1787 calls)
 
 
     PHONON       :     20h44m CPU     22h11m WALL

 
   This run was terminated on:   9:59:58   9Mar2022            

=------------------------------------------------------------------------------=
   JOB DONE.
=------------------------------------------------------------------------------=
