
     Program MATDYN v.6.7MaX starts on  9Mar2022 at 10: 0: 0 

     This program is part of the open-source Quantum ESPRESSO suite
     for quantum simulation of materials; please cite
         "P. Giannozzi et al., J. Phys.:Condens. Matter 21 395502 (2009);
         "P. Giannozzi et al., J. Phys.:Condens. Matter 29 465901 (2017);
          URL http://www.quantum-espresso.org", 
     in publications or presentations arising from this work. More details at
     http://www.quantum-espresso.org/quote

     Parallel version (MPI), running on     1 processors

     MPI processes distributed on     1 nodes
     Max |d(i,j)-d*(j,i)| =  0.000318
     Max |d(i,j)-d*(j,i)|/|d(i,j)|:   2.0466%
     Max |d(i,j)-d*(j,i)| =  0.000318
     Max |d(i,j)-d*(j,i)|/|d(i,j)|:   2.0386%
     Max |d(i,j)-d*(j,i)| =  0.000318
     Max |d(i,j)-d*(j,i)|/|d(i,j)|:   2.0153%
     Max |d(i,j)-d*(j,i)| =  0.000318
     Max |d(i,j)-d*(j,i)|/|d(i,j)|:   1.9783%
     Max |d(i,j)-d*(j,i)| =  0.000318
     Max |d(i,j)-d*(j,i)|/|d(i,j)|:   1.9300%
     Max |d(i,j)-d*(j,i)| =  0.000318
     Max |d(i,j)-d*(j,i)|/|d(i,j)|:   1.8730%
     Max |d(i,j)-d*(j,i)| =  0.000318
     Max |d(i,j)-d*(j,i)|/|d(i,j)|:   1.8102%
     Max |d(i,j)-d*(j,i)| =  0.000318
     Max |d(i,j)-d*(j,i)|/|d(i,j)|:   1.7440%
     Max |d(i,j)-d*(j,i)| =  0.000318
     Max |d(i,j)-d*(j,i)|/|d(i,j)|:   1.6766%
     Max |d(i,j)-d*(j,i)| =  0.000318
     Max |d(i,j)-d*(j,i)|/|d(i,j)|:   1.6095%
     Max |d(i,j)-d*(j,i)| =  0.000318
     Max |d(i,j)-d*(j,i)|/|d(i,j)|:   1.5441%
     Max |d(i,j)-d*(j,i)| =  0.000318
     Max |d(i,j)-d*(j,i)|/|d(i,j)|:   1.4812%
     Max |d(i,j)-d*(j,i)| =  0.000318
     Max |d(i,j)-d*(j,i)|/|d(i,j)|:   1.4212%
     Max |d(i,j)-d*(j,i)| =  0.000318
     Max |d(i,j)-d*(j,i)|/|d(i,j)|:   1.3645%
     Max |d(i,j)-d*(j,i)| =  0.000318
     Max |d(i,j)-d*(j,i)|/|d(i,j)|:   1.3113%
     Max |d(i,j)-d*(j,i)| =  0.000318
     Max |d(i,j)-d*(j,i)|/|d(i,j)|:   1.2614%
     Max |d(i,j)-d*(j,i)| =  0.000318
     Max |d(i,j)-d*(j,i)|/|d(i,j)|:   1.2149%
     Max |d(i,j)-d*(j,i)| =  0.000318
     Max |d(i,j)-d*(j,i)|/|d(i,j)|:   1.1715%
     Max |d(i,j)-d*(j,i)| =  0.000318
     Max |d(i,j)-d*(j,i)|/|d(i,j)|:   1.1313%
     Max |d(i,j)-d*(j,i)| =  0.000318
     Max |d(i,j)-d*(j,i)|/|d(i,j)|:   1.0939%
     Max |d(i,j)-d*(j,i)| =  0.000318
     Max |d(i,j)-d*(j,i)|/|d(i,j)|:   1.0591%
     Max |d(i,j)-d*(j,i)| =  0.000318
     Max |d(i,j)-d*(j,i)|/|d(i,j)|:   1.0269%
     Max |d(i,j)-d*(j,i)| =  0.000318
     Max |d(i,j)-d*(j,i)|/|d(i,j)|:   0.9970%
     Max |d(i,j)-d*(j,i)| =  0.000318
     Max |d(i,j)-d*(j,i)|/|d(i,j)|:   0.9693%
     Max |d(i,j)-d*(j,i)| =  0.000318
     Max |d(i,j)-d*(j,i)|/|d(i,j)|:   0.9436%
     Max |d(i,j)-d*(j,i)| =  0.000318
     Max |d(i,j)-d*(j,i)|/|d(i,j)|:   0.9198%
     Max |d(i,j)-d*(j,i)| =  0.000318
     Max |d(i,j)-d*(j,i)|/|d(i,j)|:   0.8977%
     Max |d(i,j)-d*(j,i)| =  0.000318
     Max |d(i,j)-d*(j,i)|/|d(i,j)|:   0.8772%
     Max |d(i,j)-d*(j,i)| =  0.000318
     Max |d(i,j)-d*(j,i)|/|d(i,j)|:   0.8582%
     Max |d(i,j)-d*(j,i)| =  0.000318
     Max |d(i,j)-d*(j,i)|/|d(i,j)|:   0.8407%
     Max |d(i,j)-d*(j,i)| =  0.000318
     Max |d(i,j)-d*(j,i)|/|d(i,j)|:   0.8244%
     Max |d(i,j)-d*(j,i)| =  0.000318
     Max |d(i,j)-d*(j,i)|/|d(i,j)|:   0.8094%
     Max |d(i,j)-d*(j,i)| =  0.000318
     Max |d(i,j)-d*(j,i)|/|d(i,j)|:   0.7955%
     Max |d(i,j)-d*(j,i)| =  0.000318
     Max |d(i,j)-d*(j,i)|/|d(i,j)|:   0.7827%
     Max |d(i,j)-d*(j,i)| =  0.000318
     Max |d(i,j)-d*(j,i)|/|d(i,j)|:   0.7709%
     Max |d(i,j)-d*(j,i)| =  0.000318
     Max |d(i,j)-d*(j,i)|/|d(i,j)|:   0.7601%
     Max |d(i,j)-d*(j,i)| =  0.000318
     Max |d(i,j)-d*(j,i)|/|d(i,j)|:   0.7502%
     Max |d(i,j)-d*(j,i)| =  0.000318
     Max |d(i,j)-d*(j,i)|/|d(i,j)|:   0.7411%
     Max |d(i,j)-d*(j,i)| =  0.000318
     Max |d(i,j)-d*(j,i)|/|d(i,j)|:   0.7329%
     Max |d(i,j)-d*(j,i)| =  0.000318
     Max |d(i,j)-d*(j,i)|/|d(i,j)|:   0.7255%
     Max |d(i,j)-d*(j,i)| =  0.000318
     Max |d(i,j)-d*(j,i)|/|d(i,j)|:   0.7188%
     Max |d(i,j)-d*(j,i)| =  0.000318
     Max |d(i,j)-d*(j,i)|/|d(i,j)|:   0.7128%
     Max |d(i,j)-d*(j,i)| =  0.000318
     Max |d(i,j)-d*(j,i)|/|d(i,j)|:   0.7075%
     Max |d(i,j)-d*(j,i)| =  0.000318
     Max |d(i,j)-d*(j,i)|/|d(i,j)|:   0.7029%
     Max |d(i,j)-d*(j,i)| =  0.000318
     Max |d(i,j)-d*(j,i)|/|d(i,j)|:   0.6990%
     Max |d(i,j)-d*(j,i)| =  0.000318
     Max |d(i,j)-d*(j,i)|/|d(i,j)|:   0.6956%
     Max |d(i,j)-d*(j,i)| =  0.000318
     Max |d(i,j)-d*(j,i)|/|d(i,j)|:   0.6929%
     Max |d(i,j)-d*(j,i)| =  0.000318
     Max |d(i,j)-d*(j,i)|/|d(i,j)|:   0.6909%
     Max |d(i,j)-d*(j,i)| =  0.000318
     Max |d(i,j)-d*(j,i)|/|d(i,j)|:   0.6894%
     Max |d(i,j)-d*(j,i)| =  0.000318
     Max |d(i,j)-d*(j,i)|/|d(i,j)|:   0.6885%
     Max |d(i,j)-d*(j,i)| =  0.000318
     Max |d(i,j)-d*(j,i)|/|d(i,j)|:   0.6882%
 
     MATDYN       :     48.41s CPU     48.63s WALL

 
   This run was terminated on:  10: 0:49   9Mar2022            

=------------------------------------------------------------------------------=
   JOB DONE.
=------------------------------------------------------------------------------=
