
     Program Q2R v.6.7MaX starts on  9Mar2022 at  9:59:59 

     This program is part of the open-source Quantum ESPRESSO suite
     for quantum simulation of materials; please cite
         "P. Giannozzi et al., J. Phys.:Condens. Matter 21 395502 (2009);
         "P. Giannozzi et al., J. Phys.:Condens. Matter 29 465901 (2017);
          URL http://www.quantum-espresso.org", 
     in publications or presentations arising from this work. More details at
     http://www.quantum-espresso.org/quote

     Parallel version (MPI), running on     1 processors

     MPI processes distributed on     1 nodes

     reading grid info from file 6AGNR.dyn0    
  reading force constants from file 6AGNR.dyn1
 macroscopic fields = T
   2.92325   0.00000   0.00000
   0.00000   1.30237   0.00000
   0.00000   0.00000   1.09421
  na=            1
  -0.36536  -0.27621   0.00000
  -0.06643   0.04931   0.00000
   0.00000   0.00000  -0.11444
  na=            2
   0.51747   0.08992   0.00000
   0.10258  -0.04040   0.00000
   0.00000   0.00000  -0.00104
  na=            3
  -0.36536   0.27621   0.00000
   0.06643   0.04931   0.00000
   0.00000   0.00000  -0.11444
  na=            4
  -0.22225   0.36237   0.00000
   0.06576   0.02918   0.00000
   0.00000   0.00000   0.00547
  na=            5
  -0.22225   0.36237   0.00000
   0.06576   0.02918   0.00000
   0.00000   0.00000   0.00547
  na=            6
   0.51747  -0.08992   0.00000
  -0.10258  -0.04040   0.00000
   0.00000   0.00000  -0.00104
  na=            7
  -0.22225  -0.36237   0.00000
  -0.06576   0.02918   0.00000
   0.00000   0.00000   0.00547
  na=            8
   0.51747   0.08992   0.00000
   0.10258  -0.04040   0.00000
   0.00000   0.00000  -0.00104
  na=            9
  -0.36536  -0.27621   0.00000
  -0.06643   0.04931   0.00000
   0.00000   0.00000  -0.11444
  na=           10
  -0.22225  -0.36237   0.00000
  -0.06576   0.02918   0.00000
   0.00000   0.00000   0.00547
  na=           11
   0.51747  -0.08992   0.00000
  -0.10258  -0.04040   0.00000
   0.00000   0.00000  -0.00104
  na=           12
  -0.36536   0.27621   0.00000
   0.06643   0.04931   0.00000
   0.00000   0.00000  -0.11444
  na=           13
   0.07126   0.14517   0.00000
   0.10097  -0.03776   0.00000
   0.00000   0.00000   0.11065
  na=           14
   0.07126  -0.14517   0.00000
  -0.10097  -0.03776   0.00000
   0.00000   0.00000   0.11065
  na=           15
   0.07126   0.14517   0.00000
   0.10097  -0.03776   0.00000
   0.00000   0.00000   0.11065
  na=           16
   0.07126  -0.14517   0.00000
  -0.10097  -0.03776   0.00000
   0.00000   0.00000   0.11065
  nqs=            1
 q=   0.00000000  0.00000000  0.00000000
  reading force constants from file 6AGNR.dyn2
  nqs=            2
 q=   0.20000000  0.00000000  0.00000000
 q=  -0.20000000  0.00000000  0.00000000
  reading force constants from file 6AGNR.dyn3
  nqs=            2
 q=   0.40000000  0.00000000  0.00000000
 q=  -0.40000000  0.00000000  0.00000000

      q-space grid ok, #points =    5

      fft-check success (sum of imaginary terms < 10^-12)
 
     Q2R          :      0.06s CPU      0.11s WALL

 
   This run was terminated on:   9:59:59   9Mar2022            

=------------------------------------------------------------------------------=
   JOB DONE.
=------------------------------------------------------------------------------=
