
     Program PHONON v.6.7MaX starts on 15Nov2021 at 15:42:22 

     This program is part of the open-source Quantum ESPRESSO suite
     for quantum simulation of materials; please cite
         "P. Giannozzi et al., J. Phys.:Condens. Matter 21 395502 (2009);
         "P. Giannozzi et al., J. Phys.:Condens. Matter 29 465901 (2017);
          URL http://www.quantum-espresso.org", 
     in publications or presentations arising from this work. More details at
     http://www.quantum-espresso.org/quote

     Parallel version (MPI), running on    20 processors

     MPI processes distributed on     1 nodes
     R & G space division:  proc/nbgrp/npool/nimage =      20
     Waiting for input...
     Reading input from standard input

     Reading xml data from directory:

     ./MoS2.save/
     Message from routine qexsd_readschema :
     input info not found or not readable in xml file
     file Mo.pbe-spn-kjpaw_psl.0.2.UPF: wavefunction(s)  4D renormalized
     file S.pbe-n-kjpaw_psl.0.1.UPF: wavefunction(s)  3P renormalized

     IMPORTANT: XC functional enforced from input :
     Exchange-correlation= PBE
                           (   1   4   3   4   0   0   0)
     Any further DFT definition will be discarded
     Please, verify this is what you really want

 
     Parallelization info
     --------------------
     sticks:   dense  smooth     PW     G-vecs:    dense   smooth      PW
     Min          63      24      7                 6341     1592     265
     Max          64      25      8                 6354     1611     280
     Sum        1261     499    151               126991    32155    5459
 

     Check: negative core charge=   -0.000001

     negative rho (up, down):  7.752E-08 0.000E+00
     Reading collected, re-writing distributed wavefunctions


     Dynamical matrices for ( 4, 4, 1)  uniform grid of q-points
     (   7 q-points):
       N         xq(1)         xq(2)         xq(3) 
       1   0.000000000   0.000000000   0.000000000
       2   0.000000000   0.286400212   0.000000000
       3   0.000000000  -0.572800425   0.000000000
       4   0.247999214   0.143200106   0.000000000
       5   0.247999214   0.429600318   0.000000000
       6  -0.495998429  -0.286400212   0.000000000
       7  -0.495998429   0.000000000   0.000000000

     Calculation of q =    0.0000000   0.0000000   0.0000000

                                                                                

     bravais-lattice index     =            0
     lattice parameter (alat)  =       5.9830  a.u.
     unit-cell volume          =     671.9051 (a.u.)^3
     number of atoms/cell      =            3
     number of atomic types    =            2
     kinetic-energy cut-off    =      50.0000  Ry
     charge density cut-off    =     500.0000  Ry
     convergence threshold     =      1.0E-20
     beta                      =       0.7000
     number of iterations used =            4
     Exchange-correlation= PBE
                           (   1   4   3   4   0   0   0)


     celldm(1)=    5.98300  celldm(2)=    0.00000  celldm(3)=    0.00000
     celldm(4)=    0.00000  celldm(5)=    0.00000  celldm(6)=    0.00000

     crystal axes: (cart. coord. in units of alat)
               a(1) = (  1.0081  0.0000  0.0000 )  
               a(2) = ( -0.5040  0.8729  0.0000 )  
               a(3) = (  0.0000  0.0000  3.5653 )  

     reciprocal axes: (cart. coord. in units 2 pi/alat)
               b(1) = (  0.9920  0.5728  0.0000 )  
               b(2) = (  0.0000  1.1456  0.0000 )  
               b(3) = (  0.0000  0.0000  0.2805 )  


     Atoms inside the unit cell: 

     Cartesian axes

     site n.  atom      mass           positions (alat units)
        1     Mo  95.9400   tau(    1) = (    0.00000    0.00305    0.00000  )
        2     S   32.0650   tau(    2) = (    0.00000    0.58502    0.49491  )
        3     S   32.0650   tau(    3) = (    0.00000    0.58502   -0.49491  )

     Computing dynamical matrix for 
                    q = (   0.0000000   0.0000000   0.0000000 )
 
      5 Sym.Ops. (with q -> -q+G )


     G cutoff =  453.3653  (   6351 G-vectors)     FFT grid: ( 45, 45,160)
     G cutoff =  181.3461  (   1611 G-vectors)  smooth grid: ( 27, 27,100)
     number of k points=    91

     PseudoPot. # 1 for Mo read from file:
     ../Pseudo/Mo.pbe-spn-kjpaw_psl.0.2.UPF
     MD5 check sum: 99c4efbabb9e14294ed14bd31c5e2f8a
     Pseudo is Projector augmented-wave + core cor, Zval = 14.0
     Generated using "atomic" code by A. Dal Corso  v.5.0.2 svn rev. 9415
     Shape of augmentation charge: PSQ
     Using radial grid of 1229 points,  6 beta functions with: 
                l(1) =   0
                l(2) =   0
                l(3) =   1
                l(4) =   1
                l(5) =   2
                l(6) =   2
     Q(r) pseudized with 0 coefficients 


     PseudoPot. # 2 for S  read from file:
     ../Pseudo/S.pbe-n-kjpaw_psl.0.1.UPF
     MD5 check sum: 5138ed5699b2c5d2fdac7c35a9631f5b
     Pseudo is Projector augmented-wave + core cor, Zval =  6.0
     Generated using "atomic" code by A. Dal Corso  v.5.0.2 svn rev. 9415
     Shape of augmentation charge: PSQ
     Using radial grid of 1151 points,  4 beta functions with: 
                l(1) =   0
                l(2) =   0
                l(3) =   1
                l(4) =   1
     Q(r) pseudized with 0 coefficients 


     Mode symmetry, C_2v (mm2)  point group:


     Electric field:
     Dielectric constant
     Born effective charges in two ways 


     Atomic displacements:
     There are    9 irreducible representations

     Representation     1      1 modes -  To be done

     Representation     2      1 modes -  To be done

     Representation     3      1 modes -  To be done

     Representation     4      1 modes -  To be done

     Representation     5      1 modes -  To be done

     Representation     6      1 modes -  To be done

     Representation     7      1 modes -  To be done

     Representation     8      1 modes -  To be done

     Representation     9      1 modes -  To be done



     Alpha used in Ewald sum =   2.8000

     negative rho (up, down):  7.752E-08 0.000E+00
     PHONON       :      4.38s CPU      4.60s WALL


     Electric Fields Calculation

      iter #   1 total cpu time :    56.0 secs   av.it.:  11.1
      thresh= 1.000E-02 alpha_mix =  0.700 |ddv_scf|^2 =  7.829E-05

      iter #   2 total cpu time :    75.3 secs   av.it.:  15.3
      thresh= 8.848E-04 alpha_mix =  0.700 |ddv_scf|^2 =  1.260E-03

      iter #   3 total cpu time :    86.9 secs   av.it.:   8.1
      thresh= 3.550E-03 alpha_mix =  0.700 |ddv_scf|^2 =  1.065E-06

      iter #   4 total cpu time :   106.2 secs   av.it.:  15.3
      thresh= 1.032E-04 alpha_mix =  0.700 |ddv_scf|^2 =  9.889E-08

      iter #   5 total cpu time :   124.7 secs   av.it.:  14.6
      thresh= 3.145E-05 alpha_mix =  0.700 |ddv_scf|^2 =  3.324E-10

      iter #   6 total cpu time :   147.1 secs   av.it.:  18.2
      thresh= 1.823E-06 alpha_mix =  0.700 |ddv_scf|^2 =  2.642E-10

      iter #   7 total cpu time :   165.7 secs   av.it.:  14.8
      thresh= 1.625E-06 alpha_mix =  0.700 |ddv_scf|^2 =  9.858E-12

      iter #   8 total cpu time :   188.1 secs   av.it.:  18.4
      thresh= 3.140E-07 alpha_mix =  0.700 |ddv_scf|^2 =  1.314E-12

      iter #   9 total cpu time :   208.8 secs   av.it.:  16.7
      thresh= 1.146E-07 alpha_mix =  0.700 |ddv_scf|^2 =  2.842E-14

      iter #  10 total cpu time :   230.4 secs   av.it.:  17.5
      thresh= 1.686E-08 alpha_mix =  0.700 |ddv_scf|^2 =  1.624E-15

      iter #  11 total cpu time :   265.0 secs   av.it.:  17.9
      thresh= 4.029E-09 alpha_mix =  0.700 |ddv_scf|^2 =  5.094E-17

      iter #  12 total cpu time :   304.0 secs   av.it.:  19.3
      thresh= 7.137E-10 alpha_mix =  0.700 |ddv_scf|^2 =  5.594E-17

      iter #  13 total cpu time :   338.3 secs   av.it.:  16.4
      thresh= 7.479E-10 alpha_mix =  0.700 |ddv_scf|^2 =  5.628E-19

      iter #  14 total cpu time :   377.3 secs   av.it.:  19.2
      thresh= 7.502E-11 alpha_mix =  0.700 |ddv_scf|^2 =  1.918E-19

      iter #  15 total cpu time :   412.8 secs   av.it.:  17.1
      thresh= 4.380E-11 alpha_mix =  0.700 |ddv_scf|^2 =  2.638E-20

      iter #  16 total cpu time :   447.3 secs   av.it.:  16.6
      thresh= 1.624E-11 alpha_mix =  0.700 |ddv_scf|^2 =  1.675E-20

      iter #  17 total cpu time :   468.7 secs   av.it.:  16.5
      thresh= 1.294E-11 alpha_mix =  0.700 |ddv_scf|^2 =  2.253E-22

     End of electric fields calculation

          Dielectric constant in cartesian axis 

          (       8.709999167       0.000000000       0.000000000 )
          (       0.000000000       8.705468828       0.000000000 )
          (       0.000000000       0.000000000       1.827199287 )

          Effective charges (d Force / dE) in cartesian axis

           atom      1   Mo 
      Ex  (       -1.00556        0.00000        0.00000 )
      Ey  (        0.00000       -0.99708        0.00000 )
      Ez  (        0.00000        0.00000       -0.11262 )
           atom      2   S  
      Ex  (        0.50544        0.00000        0.00000 )
      Ey  (        0.00000        0.50458       -0.00023 )
      Ez  (        0.00000        0.00001        0.05469 )
           atom      3   S  
      Ex  (        0.50544        0.00000        0.00000 )
      Ey  (        0.00000        0.50458        0.00023 )
      Ez  (        0.00000       -0.00001        0.05469 )


     Representation #   1 mode #   1

     Self-consistent Calculation

      iter #   1 total cpu time :   484.0 secs   av.it.:   9.1
      thresh= 1.000E-02 alpha_mix =  0.700 |ddv_scf|^2 =  1.424E-05

      iter #   2 total cpu time :   491.1 secs   av.it.:  17.1
      thresh= 3.773E-04 alpha_mix =  0.700 |ddv_scf|^2 =  1.500E-04

      iter #   3 total cpu time :   497.5 secs   av.it.:  15.0
      thresh= 1.225E-03 alpha_mix =  0.700 |ddv_scf|^2 =  1.935E-06

      iter #   4 total cpu time :   504.3 secs   av.it.:  16.0
      thresh= 1.391E-04 alpha_mix =  0.700 |ddv_scf|^2 =  9.194E-09

      iter #   5 total cpu time :   511.4 secs   av.it.:  17.0
      thresh= 9.589E-06 alpha_mix =  0.700 |ddv_scf|^2 =  2.325E-10

      iter #   6 total cpu time :   518.9 secs   av.it.:  17.8
      thresh= 1.525E-06 alpha_mix =  0.700 |ddv_scf|^2 =  9.317E-12

      iter #   7 total cpu time :   526.2 secs   av.it.:  17.5
      thresh= 3.052E-07 alpha_mix =  0.700 |ddv_scf|^2 =  1.489E-12

      iter #   8 total cpu time :   533.0 secs   av.it.:  15.9
      thresh= 1.220E-07 alpha_mix =  0.700 |ddv_scf|^2 =  3.442E-14

      iter #   9 total cpu time :   542.6 secs   av.it.:  16.4
      thresh= 1.855E-08 alpha_mix =  0.700 |ddv_scf|^2 =  5.673E-16

      iter #  10 total cpu time :   555.0 secs   av.it.:  17.8
      thresh= 2.382E-09 alpha_mix =  0.700 |ddv_scf|^2 =  1.163E-17

      iter #  11 total cpu time :   568.2 secs   av.it.:  19.0
      thresh= 3.410E-10 alpha_mix =  0.700 |ddv_scf|^2 =  6.669E-18

      iter #  12 total cpu time :   576.2 secs   av.it.:  16.9
      thresh= 2.583E-10 alpha_mix =  0.700 |ddv_scf|^2 =  9.122E-20

      iter #  13 total cpu time :   583.2 secs   av.it.:  16.6
      thresh= 3.020E-11 alpha_mix =  0.700 |ddv_scf|^2 =  1.014E-20

      iter #  14 total cpu time :   590.2 secs   av.it.:  16.7
      thresh= 1.007E-11 alpha_mix =  0.700 |ddv_scf|^2 =  1.052E-22

     End of self-consistent calculation

     Convergence has been achieved 


     Representation #   2 mode #   2

     Self-consistent Calculation

      iter #   1 total cpu time :   595.5 secs   av.it.:   9.2
      thresh= 1.000E-02 alpha_mix =  0.700 |ddv_scf|^2 =  1.378E-05

      iter #   2 total cpu time :   602.7 secs   av.it.:  17.1
      thresh= 3.712E-04 alpha_mix =  0.700 |ddv_scf|^2 =  1.457E-04

      iter #   3 total cpu time :   609.1 secs   av.it.:  15.0
      thresh= 1.207E-03 alpha_mix =  0.700 |ddv_scf|^2 =  1.842E-06

      iter #   4 total cpu time :   615.9 secs   av.it.:  16.0
      thresh= 1.357E-04 alpha_mix =  0.700 |ddv_scf|^2 =  5.645E-09

      iter #   5 total cpu time :   623.2 secs   av.it.:  17.6
      thresh= 7.513E-06 alpha_mix =  0.700 |ddv_scf|^2 =  8.006E-10

      iter #   6 total cpu time :   630.4 secs   av.it.:  17.3
      thresh= 2.829E-06 alpha_mix =  0.700 |ddv_scf|^2 =  5.524E-12

      iter #   7 total cpu time :   642.1 secs   av.it.:  18.1
      thresh= 2.350E-07 alpha_mix =  0.700 |ddv_scf|^2 =  4.886E-13

      iter #   8 total cpu time :   653.3 secs   av.it.:  15.8
      thresh= 6.990E-08 alpha_mix =  0.700 |ddv_scf|^2 =  1.184E-14

      iter #   9 total cpu time :   665.2 secs   av.it.:  17.1
      thresh= 1.088E-08 alpha_mix =  0.700 |ddv_scf|^2 =  3.517E-16

      iter #  10 total cpu time :   673.6 secs   av.it.:  17.5
      thresh= 1.875E-09 alpha_mix =  0.700 |ddv_scf|^2 =  1.045E-17

      iter #  11 total cpu time :   681.4 secs   av.it.:  19.1
      thresh= 3.233E-10 alpha_mix =  0.700 |ddv_scf|^2 =  1.243E-17

      iter #  12 total cpu time :   688.6 secs   av.it.:  16.6
      thresh= 3.526E-10 alpha_mix =  0.700 |ddv_scf|^2 =  2.350E-19

      iter #  13 total cpu time :   696.1 secs   av.it.:  16.0
      thresh= 4.847E-11 alpha_mix =  0.700 |ddv_scf|^2 =  8.498E-21

     End of self-consistent calculation

     Convergence has been achieved 


     Representation #   3 mode #   3

     Self-consistent Calculation

      iter #   1 total cpu time :   701.9 secs   av.it.:  10.9
      thresh= 1.000E-02 alpha_mix =  0.700 |ddv_scf|^2 =  1.124E-06

      iter #   2 total cpu time :   709.3 secs   av.it.:  17.9
      thresh= 1.060E-04 alpha_mix =  0.700 |ddv_scf|^2 =  7.832E-08

      iter #   3 total cpu time :   716.8 secs   av.it.:  18.3
      thresh= 2.799E-05 alpha_mix =  0.700 |ddv_scf|^2 =  3.919E-09

      iter #   4 total cpu time :   724.1 secs   av.it.:  17.8
      thresh= 6.260E-06 alpha_mix =  0.700 |ddv_scf|^2 =  1.892E-10

      iter #   5 total cpu time :   731.6 secs   av.it.:  18.6
      thresh= 1.375E-06 alpha_mix =  0.700 |ddv_scf|^2 =  7.215E-10

      iter #   6 total cpu time :   738.1 secs   av.it.:  15.5
      thresh= 2.686E-06 alpha_mix =  0.700 |ddv_scf|^2 =  1.394E-12

      iter #   7 total cpu time :   745.5 secs   av.it.:  17.9
      thresh= 1.181E-07 alpha_mix =  0.700 |ddv_scf|^2 =  3.562E-14

      iter #   8 total cpu time :   753.2 secs   av.it.:  18.9
      thresh= 1.887E-08 alpha_mix =  0.700 |ddv_scf|^2 =  2.418E-14

      iter #   9 total cpu time :   760.3 secs   av.it.:  17.0
      thresh= 1.555E-08 alpha_mix =  0.700 |ddv_scf|^2 =  5.054E-15

      iter #  10 total cpu time :   767.3 secs   av.it.:  16.7
      thresh= 7.109E-09 alpha_mix =  0.700 |ddv_scf|^2 =  2.059E-17

      iter #  11 total cpu time :   774.8 secs   av.it.:  18.2
      thresh= 4.537E-10 alpha_mix =  0.700 |ddv_scf|^2 =  5.762E-18

      iter #  12 total cpu time :   782.8 secs   av.it.:  16.8
      thresh= 2.400E-10 alpha_mix =  0.700 |ddv_scf|^2 =  1.654E-19

      iter #  13 total cpu time :   795.1 secs   av.it.:  16.9
      thresh= 4.066E-11 alpha_mix =  0.700 |ddv_scf|^2 =  5.080E-21

     End of self-consistent calculation

     Convergence has been achieved 


     Representation #   4 mode #   4

     Self-consistent Calculation

      iter #   1 total cpu time :   803.8 secs   av.it.:   7.9
      thresh= 1.000E-02 alpha_mix =  0.700 |ddv_scf|^2 =  4.490E-08

      iter #   2 total cpu time :   816.1 secs   av.it.:  17.0
      thresh= 2.119E-05 alpha_mix =  0.700 |ddv_scf|^2 =  2.958E-09

      iter #   3 total cpu time :   828.7 secs   av.it.:  17.4
      thresh= 5.439E-06 alpha_mix =  0.700 |ddv_scf|^2 =  1.320E-10

      iter #   4 total cpu time :   841.0 secs   av.it.:  17.0
      thresh= 1.149E-06 alpha_mix =  0.700 |ddv_scf|^2 =  3.443E-13

      iter #   5 total cpu time :   853.2 secs   av.it.:  16.9
      thresh= 5.867E-08 alpha_mix =  0.700 |ddv_scf|^2 =  1.139E-14

      iter #   6 total cpu time :   865.6 secs   av.it.:  17.1
      thresh= 1.067E-08 alpha_mix =  0.700 |ddv_scf|^2 =  5.920E-17

      iter #   7 total cpu time :   877.8 secs   av.it.:  17.1
      thresh= 7.694E-10 alpha_mix =  0.700 |ddv_scf|^2 =  1.138E-18

      iter #   8 total cpu time :   890.3 secs   av.it.:  17.3
      thresh= 1.067E-10 alpha_mix =  0.700 |ddv_scf|^2 =  1.735E-20

      iter #   9 total cpu time :   902.8 secs   av.it.:  17.5
      thresh= 1.317E-11 alpha_mix =  0.700 |ddv_scf|^2 =  5.097E-22

     End of self-consistent calculation

     Convergence has been achieved 


     Representation #   5 mode #   5

     Self-consistent Calculation

      iter #   1 total cpu time :   911.2 secs   av.it.:   8.1
      thresh= 1.000E-02 alpha_mix =  0.700 |ddv_scf|^2 =  6.193E-08

      iter #   2 total cpu time :   924.0 secs   av.it.:  17.8
      thresh= 2.489E-05 alpha_mix =  0.700 |ddv_scf|^2 =  5.500E-09

      iter #   3 total cpu time :   936.9 secs   av.it.:  18.4
      thresh= 7.416E-06 alpha_mix =  0.700 |ddv_scf|^2 =  2.675E-10

      iter #   4 total cpu time :   949.3 secs   av.it.:  17.5
      thresh= 1.636E-06 alpha_mix =  0.700 |ddv_scf|^2 =  9.162E-13

      iter #   5 total cpu time :   962.4 secs   av.it.:  18.5
      thresh= 9.572E-08 alpha_mix =  0.700 |ddv_scf|^2 =  4.588E-14

      iter #   6 total cpu time :   975.3 secs   av.it.:  18.2
      thresh= 2.142E-08 alpha_mix =  0.700 |ddv_scf|^2 =  3.281E-16

      iter #   7 total cpu time :   988.1 secs   av.it.:  18.0
      thresh= 1.811E-09 alpha_mix =  0.700 |ddv_scf|^2 =  1.247E-17

      iter #   8 total cpu time :  1001.1 secs   av.it.:  18.2
      thresh= 3.532E-10 alpha_mix =  0.700 |ddv_scf|^2 =  3.457E-19

      iter #   9 total cpu time :  1014.1 secs   av.it.:  18.4
      thresh= 5.879E-11 alpha_mix =  0.700 |ddv_scf|^2 =  1.125E-20

      iter #  10 total cpu time :  1027.2 secs   av.it.:  18.5
      thresh= 1.061E-11 alpha_mix =  0.700 |ddv_scf|^2 =  8.820E-22

     End of self-consistent calculation

     Convergence has been achieved 


     Representation #   6 mode #   6

     Self-consistent Calculation

      iter #   1 total cpu time :  1037.2 secs   av.it.:  10.9
      thresh= 1.000E-02 alpha_mix =  0.700 |ddv_scf|^2 =  1.062E-06

      iter #   2 total cpu time :  1050.0 secs   av.it.:  17.9
      thresh= 1.031E-04 alpha_mix =  0.700 |ddv_scf|^2 =  6.931E-08

      iter #   3 total cpu time :  1062.8 secs   av.it.:  18.2
      thresh= 2.633E-05 alpha_mix =  0.700 |ddv_scf|^2 =  2.228E-09

      iter #   4 total cpu time :  1075.5 secs   av.it.:  17.8
      thresh= 4.720E-06 alpha_mix =  0.700 |ddv_scf|^2 =  9.891E-11

      iter #   5 total cpu time :  1088.4 secs   av.it.:  18.0
      thresh= 9.946E-07 alpha_mix =  0.700 |ddv_scf|^2 =  8.073E-13

      iter #   6 total cpu time :  1101.5 secs   av.it.:  18.5
      thresh= 8.985E-08 alpha_mix =  0.700 |ddv_scf|^2 =  1.382E-15

      iter #   7 total cpu time :  1114.4 secs   av.it.:  18.0
      thresh= 3.717E-09 alpha_mix =  0.700 |ddv_scf|^2 =  8.997E-17

      iter #   8 total cpu time :  1127.4 secs   av.it.:  18.3
      thresh= 9.485E-10 alpha_mix =  0.700 |ddv_scf|^2 =  3.914E-19

      iter #   9 total cpu time :  1140.0 secs   av.it.:  17.8
      thresh= 6.256E-11 alpha_mix =  0.700 |ddv_scf|^2 =  1.784E-20

      iter #  10 total cpu time :  1152.5 secs   av.it.:  17.7
      thresh= 1.336E-11 alpha_mix =  0.700 |ddv_scf|^2 =  3.168E-22

     End of self-consistent calculation

     Convergence has been achieved 


     Representation #   7 mode #   7

     Self-consistent Calculation

      iter #   1 total cpu time :  1161.5 secs   av.it.:   8.7
      thresh= 1.000E-02 alpha_mix =  0.700 |ddv_scf|^2 =  1.489E-05

      iter #   2 total cpu time :  1173.2 secs   av.it.:  15.7
      thresh= 3.859E-04 alpha_mix =  0.700 |ddv_scf|^2 =  2.081E-04

      iter #   3 total cpu time :  1183.6 secs   av.it.:  13.8
      thresh= 1.443E-03 alpha_mix =  0.700 |ddv_scf|^2 =  1.310E-06

      iter #   4 total cpu time :  1194.7 secs   av.it.:  15.1
      thresh= 1.144E-04 alpha_mix =  0.700 |ddv_scf|^2 =  1.305E-09

      iter #   5 total cpu time :  1206.7 secs   av.it.:  16.8
      thresh= 3.612E-06 alpha_mix =  0.700 |ddv_scf|^2 =  1.257E-10

      iter #   6 total cpu time :  1218.5 secs   av.it.:  16.3
      thresh= 1.121E-06 alpha_mix =  0.700 |ddv_scf|^2 =  2.640E-12

      iter #   7 total cpu time :  1231.0 secs   av.it.:  17.3
      thresh= 1.625E-07 alpha_mix =  0.700 |ddv_scf|^2 =  2.573E-13

      iter #   8 total cpu time :  1242.4 secs   av.it.:  15.5
      thresh= 5.072E-08 alpha_mix =  0.700 |ddv_scf|^2 =  4.433E-15

      iter #   9 total cpu time :  1254.0 secs   av.it.:  15.9
      thresh= 6.658E-09 alpha_mix =  0.700 |ddv_scf|^2 =  1.380E-16

      iter #  10 total cpu time :  1266.3 secs   av.it.:  16.8
      thresh= 1.175E-09 alpha_mix =  0.700 |ddv_scf|^2 =  1.082E-16

      iter #  11 total cpu time :  1277.3 secs   av.it.:  14.9
      thresh= 1.040E-09 alpha_mix =  0.700 |ddv_scf|^2 =  1.692E-18

      iter #  12 total cpu time :  1289.2 secs   av.it.:  16.5
      thresh= 1.301E-10 alpha_mix =  0.700 |ddv_scf|^2 =  1.474E-19

      iter #  13 total cpu time :  1300.8 secs   av.it.:  15.9
      thresh= 3.839E-11 alpha_mix =  0.700 |ddv_scf|^2 =  3.880E-21

     End of self-consistent calculation

     Convergence has been achieved 


     Representation #   8 mode #   8

     Self-consistent Calculation

      iter #   1 total cpu time :  1311.8 secs   av.it.:  12.1
      thresh= 1.000E-02 alpha_mix =  0.700 |ddv_scf|^2 =  2.893E-04

      iter #   2 total cpu time :  1323.6 secs   av.it.:  16.3
      thresh= 1.701E-03 alpha_mix =  0.700 |ddv_scf|^2 =  5.141E-03

      iter #   3 total cpu time :  1334.0 secs   av.it.:  13.7
      thresh= 7.170E-03 alpha_mix =  0.700 |ddv_scf|^2 =  4.654E-07

      iter #   4 total cpu time :  1346.2 secs   av.it.:  17.1
      thresh= 6.822E-05 alpha_mix =  0.700 |ddv_scf|^2 =  1.226E-07

      iter #   5 total cpu time :  1357.6 secs   av.it.:  15.8
      thresh= 3.502E-05 alpha_mix =  0.700 |ddv_scf|^2 =  1.176E-08

      iter #   6 total cpu time :  1368.8 secs   av.it.:  15.2
      thresh= 1.084E-05 alpha_mix =  0.700 |ddv_scf|^2 =  1.049E-09

      iter #   7 total cpu time :  1379.7 secs   av.it.:  14.9
      thresh= 3.239E-06 alpha_mix =  0.700 |ddv_scf|^2 =  7.624E-14

      iter #   8 total cpu time :  1392.1 secs   av.it.:  17.3
      thresh= 2.761E-08 alpha_mix =  0.700 |ddv_scf|^2 =  2.521E-15

      iter #   9 total cpu time :  1404.1 secs   av.it.:  16.7
      thresh= 5.021E-09 alpha_mix =  0.700 |ddv_scf|^2 =  1.008E-15

      iter #  10 total cpu time :  1415.0 secs   av.it.:  14.5
      thresh= 3.175E-09 alpha_mix =  0.700 |ddv_scf|^2 =  6.257E-18

      iter #  11 total cpu time :  1426.5 secs   av.it.:  15.8
      thresh= 2.501E-10 alpha_mix =  0.700 |ddv_scf|^2 =  2.903E-19

      iter #  12 total cpu time :  1437.8 secs   av.it.:  15.5
      thresh= 5.388E-11 alpha_mix =  0.700 |ddv_scf|^2 =  5.106E-21

     End of self-consistent calculation

     Convergence has been achieved 


     Representation #   9 mode #   9

     Self-consistent Calculation

      iter #   1 total cpu time :  1446.5 secs   av.it.:   8.1
      thresh= 1.000E-02 alpha_mix =  0.700 |ddv_scf|^2 =  2.663E-06

      iter #   2 total cpu time :  1458.3 secs   av.it.:  16.1
      thresh= 1.632E-04 alpha_mix =  0.700 |ddv_scf|^2 =  3.667E-05

      iter #   3 total cpu time :  1468.7 secs   av.it.:  13.8
      thresh= 6.056E-04 alpha_mix =  0.700 |ddv_scf|^2 =  2.504E-07

      iter #   4 total cpu time :  1480.0 secs   av.it.:  15.4
      thresh= 5.004E-05 alpha_mix =  0.700 |ddv_scf|^2 =  1.205E-09

      iter #   5 total cpu time :  1492.2 secs   av.it.:  16.9
      thresh= 3.472E-06 alpha_mix =  0.700 |ddv_scf|^2 =  5.970E-11

      iter #   6 total cpu time :  1504.6 secs   av.it.:  17.4
      thresh= 7.727E-07 alpha_mix =  0.700 |ddv_scf|^2 =  4.030E-12

      iter #   7 total cpu time :  1516.5 secs   av.it.:  16.3
      thresh= 2.008E-07 alpha_mix =  0.700 |ddv_scf|^2 =  3.346E-14

      iter #   8 total cpu time :  1528.6 secs   av.it.:  16.8
      thresh= 1.829E-08 alpha_mix =  0.700 |ddv_scf|^2 =  7.644E-16

      iter #   9 total cpu time :  1540.7 secs   av.it.:  17.0
      thresh= 2.765E-09 alpha_mix =  0.700 |ddv_scf|^2 =  1.798E-17

      iter #  10 total cpu time :  1553.2 secs   av.it.:  17.6
      thresh= 4.240E-10 alpha_mix =  0.700 |ddv_scf|^2 =  6.403E-18

      iter #  11 total cpu time :  1564.9 secs   av.it.:  16.3
      thresh= 2.530E-10 alpha_mix =  0.700 |ddv_scf|^2 =  1.535E-18

      iter #  12 total cpu time :  1576.2 secs   av.it.:  15.2
      thresh= 1.239E-10 alpha_mix =  0.700 |ddv_scf|^2 =  2.450E-20

      iter #  13 total cpu time :  1588.7 secs   av.it.:  17.4
      thresh= 1.565E-11 alpha_mix =  0.700 |ddv_scf|^2 =  6.897E-21

     End of self-consistent calculation

     Convergence has been achieved 
 
     Number of q in the star =    1
     List of q in the star:
          1   0.000000000   0.000000000   0.000000000

          Dielectric constant in cartesian axis 

          (       8.709999167       0.000000000       0.000000000 )
          (       0.000000000       8.705468828       0.000000000 )
          (       0.000000000       0.000000000       1.827199287 )

          Effective charges (d Force / dE) in cartesian axis

           atom      1   Mo 
      Ex  (       -1.00556        0.00000        0.00000 )
      Ey  (        0.00000       -0.99708        0.00000 )
      Ez  (        0.00000        0.00000       -0.11262 )
           atom      2   S  
      Ex  (        0.50544        0.00000        0.00000 )
      Ey  (        0.00000        0.50458       -0.00023 )
      Ez  (        0.00000        0.00001        0.05469 )
           atom      3   S  
      Ex  (        0.50544        0.00000        0.00000 )
      Ey  (        0.00000        0.50458        0.00023 )
      Ez  (        0.00000       -0.00001        0.05469 )

          Effective charges (d P / du) in cartesian axis 

           atom      1   Mo 
      Px  (       -1.00604        0.00000        0.00000 )
      Py  (        0.00000       -1.00741        0.00000 )
      Pz  (        0.00000        0.00000       -0.11264 )
           atom      2   S  
      Px  (        0.50550        0.00000        0.00000 )
      Py  (        0.00000        0.50618       -0.00024 )
      Pz  (        0.00000        0.00001        0.05473 )
           atom      3   S  
      Px  (        0.50550        0.00000        0.00000 )
      Py  (        0.00000        0.50618        0.00024 )
      Pz  (        0.00000       -0.00001        0.05473 )

     Diagonalizing the dynamical matrix

     q = (    0.000000000   0.000000000   0.000000000 ) 

 **************************************************************************
     freq (    1) =       0.304929 [THz] =      10.171352 [cm-1]
     freq (    2) =       0.309044 [THz] =      10.308592 [cm-1]
     freq (    3) =       0.340244 [THz] =      11.349321 [cm-1]
     freq (    4) =       8.274460 [THz] =     276.006275 [cm-1]
     freq (    5) =       8.274914 [THz] =     276.021414 [cm-1]
     freq (    6) =      11.197695 [THz] =     373.514891 [cm-1]
     freq (    7) =      11.198158 [THz] =     373.530351 [cm-1]
     freq (    8) =      11.865452 [THz] =     395.788889 [cm-1]
     freq (    9) =      13.736091 [THz] =     458.186681 [cm-1]
 **************************************************************************

     Mode symmetry, C_2v (mm2)  point group:

     freq (   1-   1) =         10.2  [cm-1]   --> A_1  D_1  S_1   I+R
     freq (   2-   2) =         10.3  [cm-1]   --> B_1  D_3  S_3   I+R
     freq (   3-   3) =         11.3  [cm-1]   --> B_2  D_4  S_4   I+R
     freq (   4-   4) =        276.0  [cm-1]   --> A_2  D_2  S_2   R  
     freq (   5-   5) =        276.0  [cm-1]   --> B_2  D_4  S_4   I+R
     freq (   6-   6) =        373.5  [cm-1]   --> A_1  D_1  S_1   I+R
     freq (   7-   7) =        373.5  [cm-1]   --> B_1  D_3  S_3   I+R
     freq (   8-   8) =        395.8  [cm-1]   --> A_1  D_1  S_1   I+R
     freq (   9-   9) =        458.2  [cm-1]   --> B_2  D_4  S_4   I+R

     Calculation of q =    0.0000000   0.2864002   0.0000000

     Subspace diagonalization in iterative solution of the eigenvalue problem:
     one sub-group per band group will be used
     scalapack distributed-memory algorithm (size of sub-group:  4*  4 procs)

 
     Parallelization info
     --------------------
     sticks:   dense  smooth     PW     G-vecs:    dense   smooth      PW
     Min          63      24      8                 6341     1592     296
     Max          64      25      9                 6354     1611     309
     Sum        1261     499    163               126991    32155    6061
 


     bravais-lattice index     =            0
     lattice parameter (alat)  =       5.9830  a.u.
     unit-cell volume          =     671.9051 (a.u.)^3
     number of atoms/cell      =            3
     number of atomic types    =            2
     number of electrons       =        26.00
     number of Kohn-Sham states=           13
     kinetic-energy cutoff     =      50.0000  Ry
     charge density cutoff     =     500.0000  Ry
     Exchange-correlation= PBE
                           (   1   4   3   4   0   0   0)

     celldm(1)=   5.983000  celldm(2)=   0.000000  celldm(3)=   0.000000
     celldm(4)=   0.000000  celldm(5)=   0.000000  celldm(6)=   0.000000

     crystal axes: (cart. coord. in units of alat)
               a(1) = (   1.008068   0.000000   0.000000 )  
               a(2) = (  -0.504034   0.872904   0.000000 )  
               a(3) = (   0.000000   0.000000   3.565287 )  

     reciprocal axes: (cart. coord. in units 2 pi/alat)
               b(1) = (  0.991997  0.572800  0.000000 )  
               b(2) = (  0.000000  1.145601  0.000000 )  
               b(3) = (  0.000000  0.000000  0.280482 )  


     PseudoPot. # 1 for Mo read from file:
     ../Pseudo/Mo.pbe-spn-kjpaw_psl.0.2.UPF
     MD5 check sum: 99c4efbabb9e14294ed14bd31c5e2f8a
     Pseudo is Projector augmented-wave + core cor, Zval = 14.0
     Generated using "atomic" code by A. Dal Corso  v.5.0.2 svn rev. 9415
     Shape of augmentation charge: PSQ
     Using radial grid of 1229 points,  6 beta functions with: 
                l(1) =   0
                l(2) =   0
                l(3) =   1
                l(4) =   1
                l(5) =   2
                l(6) =   2
     Q(r) pseudized with 0 coefficients 


     PseudoPot. # 2 for S  read from file:
     ../Pseudo/S.pbe-n-kjpaw_psl.0.1.UPF
     MD5 check sum: 5138ed5699b2c5d2fdac7c35a9631f5b
     Pseudo is Projector augmented-wave + core cor, Zval =  6.0
     Generated using "atomic" code by A. Dal Corso  v.5.0.2 svn rev. 9415
     Shape of augmentation charge: PSQ
     Using radial grid of 1151 points,  4 beta functions with: 
                l(1) =   0
                l(2) =   0
                l(3) =   1
                l(4) =   1
     Q(r) pseudized with 0 coefficients 


     atomic species   valence    mass     pseudopotential
        Mo            14.00    95.94000     Mo( 1.00)
        S              6.00    32.06500     S ( 1.00)

      4 Sym. Ops. (no inversion) found



   Cartesian axes

     site n.     atom                  positions (alat units)
         1           Mo  tau(   1) = (   0.0000000   0.0030498   0.0000000  )
         2           S   tau(   2) = (   0.0000000   0.5850225   0.4949137  )
         3           S   tau(   3) = (   0.0000000   0.5850225  -0.4949137  )

     number of k points=   342

     Number of k-points >= 100: set verbosity='high' to print them.

     Dense  grid:   126991 G-vectors     FFT dimensions: (  45,  45, 160)

     Smooth grid:    32155 G-vectors     FFT dimensions: (  27,  27, 100)

     Estimated max dynamical RAM per process >      24.19 MB

     Estimated total dynamical RAM >     483.72 MB

     Check: negative core charge=   -0.000001

     The potential is recalculated from file :
     ./_ph0/MoS2.save/charge-density


     negative rho (up, down):  7.752E-08 0.000E+00
     Starting wfcs are   21 atomic wfcs
     Checking if some PAW data can be deallocated... 

     Band Structure Calculation
     Davidson diagonalization with overlap

     ethr =  3.85E-11,  avg # of iterations = 21.1

     total cpu time spent up to now is       89.3 secs

     End of band structure calculation

     Number of k-points >= 100: set verbosity='high' to print the bands.

     highest occupied level (ev):     2.8095

     Writing output data file ./_ph0/MoS2.save/

                                                                                

     bravais-lattice index     =            0
     lattice parameter (alat)  =       5.9830  a.u.
     unit-cell volume          =     671.9051 (a.u.)^3
     number of atoms/cell      =            3
     number of atomic types    =            2
     kinetic-energy cut-off    =      50.0000  Ry
     charge density cut-off    =     500.0000  Ry
     convergence threshold     =      1.0E-20
     beta                      =       0.7000
     number of iterations used =            4
     Exchange-correlation= PBE
                           (   1   4   3   4   0   0   0)


     celldm(1)=    5.98300  celldm(2)=    0.00000  celldm(3)=    0.00000
     celldm(4)=    0.00000  celldm(5)=    0.00000  celldm(6)=    0.00000

     crystal axes: (cart. coord. in units of alat)
               a(1) = (  1.0081  0.0000  0.0000 )  
               a(2) = ( -0.5040  0.8729  0.0000 )  
               a(3) = (  0.0000  0.0000  3.5653 )  

     reciprocal axes: (cart. coord. in units 2 pi/alat)
               b(1) = (  0.9920  0.5728  0.0000 )  
               b(2) = (  0.0000  1.1456  0.0000 )  
               b(3) = (  0.0000  0.0000  0.2805 )  


     Atoms inside the unit cell: 

     Cartesian axes

     site n.  atom      mass           positions (alat units)
        1     Mo  95.9400   tau(    1) = (    0.00000    0.00305    0.00000  )
        2     S   32.0650   tau(    2) = (    0.00000    0.58502    0.49491  )
        3     S   32.0650   tau(    3) = (    0.00000    0.58502   -0.49491  )

     Computing dynamical matrix for 
                    q = (   0.0000000   0.2864002   0.0000000 )
 
      4 Sym.Ops. (no q -> -q+G )


     G cutoff =  453.3653  (   6351 G-vectors)     FFT grid: ( 45, 45,160)
     G cutoff =  181.3461  (   1611 G-vectors)  smooth grid: ( 27, 27,100)
     number of k points=   342

     PseudoPot. # 1 for Mo read from file:
     ../Pseudo/Mo.pbe-spn-kjpaw_psl.0.2.UPF
     MD5 check sum: 99c4efbabb9e14294ed14bd31c5e2f8a
     Pseudo is Projector augmented-wave + core cor, Zval = 14.0
     Generated using "atomic" code by A. Dal Corso  v.5.0.2 svn rev. 9415
     Shape of augmentation charge: PSQ
     Using radial grid of 1229 points,  6 beta functions with: 
                l(1) =   0
                l(2) =   0
                l(3) =   1
                l(4) =   1
                l(5) =   2
                l(6) =   2
     Q(r) pseudized with 0 coefficients 


     PseudoPot. # 2 for S  read from file:
     ../Pseudo/S.pbe-n-kjpaw_psl.0.1.UPF
     MD5 check sum: 5138ed5699b2c5d2fdac7c35a9631f5b
     Pseudo is Projector augmented-wave + core cor, Zval =  6.0
     Generated using "atomic" code by A. Dal Corso  v.5.0.2 svn rev. 9415
     Shape of augmentation charge: PSQ
     Using radial grid of 1151 points,  4 beta functions with: 
                l(1) =   0
                l(2) =   0
                l(3) =   1
                l(4) =   1
     Q(r) pseudized with 0 coefficients 


     Mode symmetry, C_2v (mm2)  point group:


     Atomic displacements:
     There are    9 irreducible representations

     Representation     1      1 modes -  To be done

     Representation     2      1 modes -  To be done

     Representation     3      1 modes -  To be done

     Representation     4      1 modes -  To be done

     Representation     5      1 modes -  To be done

     Representation     6      1 modes -  To be done

     Representation     7      1 modes -  To be done

     Representation     8      1 modes -  To be done

     Representation     9      1 modes -  To be done



     Alpha used in Ewald sum =   2.8000

     negative rho (up, down):  7.752E-08 0.000E+00
     PHONON       :  27m 1.74s CPU  28m 9.67s WALL



     Representation #   1 mode #   1

     Self-consistent Calculation

      iter #   1 total cpu time :  1704.4 secs   av.it.:   9.9
      thresh= 1.000E-02 alpha_mix =  0.700 |ddv_scf|^2 =  2.346E-05

      iter #   2 total cpu time :  1727.1 secs   av.it.:  17.4
      thresh= 4.844E-04 alpha_mix =  0.700 |ddv_scf|^2 =  8.266E-04

      iter #   3 total cpu time :  1746.6 secs   av.it.:  14.4
      thresh= 2.875E-03 alpha_mix =  0.700 |ddv_scf|^2 =  7.931E-06

      iter #   4 total cpu time :  1767.4 secs   av.it.:  15.6
      thresh= 2.816E-04 alpha_mix =  0.700 |ddv_scf|^2 =  4.065E-07

      iter #   5 total cpu time :  1789.3 secs   av.it.:  16.6
      thresh= 6.376E-05 alpha_mix =  0.700 |ddv_scf|^2 =  5.522E-09

      iter #   6 total cpu time :  1812.0 secs   av.it.:  17.4
      thresh= 7.431E-06 alpha_mix =  0.700 |ddv_scf|^2 =  3.420E-11

      iter #   7 total cpu time :  1834.9 secs   av.it.:  17.4
      thresh= 5.848E-07 alpha_mix =  0.700 |ddv_scf|^2 =  6.071E-12

      iter #   8 total cpu time :  1858.3 secs   av.it.:  18.0
      thresh= 2.464E-07 alpha_mix =  0.700 |ddv_scf|^2 =  4.351E-11

      iter #   9 total cpu time :  1878.9 secs   av.it.:  15.3
      thresh= 6.596E-07 alpha_mix =  0.700 |ddv_scf|^2 =  2.503E-12

      iter #  10 total cpu time :  1901.5 secs   av.it.:  16.9
      thresh= 1.582E-07 alpha_mix =  0.700 |ddv_scf|^2 =  1.271E-12

      iter #  11 total cpu time :  1923.0 secs   av.it.:  16.2
      thresh= 1.128E-07 alpha_mix =  0.700 |ddv_scf|^2 =  6.640E-13

      iter #  12 total cpu time :  1944.1 secs   av.it.:  15.9
      thresh= 8.149E-08 alpha_mix =  0.700 |ddv_scf|^2 =  4.771E-15

      iter #  13 total cpu time :  1966.6 secs   av.it.:  17.0
      thresh= 6.907E-09 alpha_mix =  0.700 |ddv_scf|^2 =  5.308E-16

      iter #  14 total cpu time :  1989.6 secs   av.it.:  17.6
      thresh= 2.304E-09 alpha_mix =  0.700 |ddv_scf|^2 =  2.571E-16

      iter #  15 total cpu time :  2011.4 secs   av.it.:  16.3
      thresh= 1.603E-09 alpha_mix =  0.700 |ddv_scf|^2 =  3.514E-17

      iter #  16 total cpu time :  2034.7 secs   av.it.:  17.8
      thresh= 5.928E-10 alpha_mix =  0.700 |ddv_scf|^2 =  2.601E-17

      iter #  17 total cpu time :  2056.6 secs   av.it.:  16.5
      thresh= 5.100E-10 alpha_mix =  0.700 |ddv_scf|^2 =  9.221E-18

      iter #  18 total cpu time :  2078.3 secs   av.it.:  16.2
      thresh= 3.037E-10 alpha_mix =  0.700 |ddv_scf|^2 =  2.384E-18

      iter #  19 total cpu time :  2100.5 secs   av.it.:  16.8
      thresh= 1.544E-10 alpha_mix =  0.700 |ddv_scf|^2 =  6.920E-19

      iter #  20 total cpu time :  2122.5 secs   av.it.:  16.6
      thresh= 8.318E-11 alpha_mix =  0.700 |ddv_scf|^2 =  2.852E-20

      iter #  21 total cpu time :  2145.7 secs   av.it.:  17.6
      thresh= 1.689E-11 alpha_mix =  0.700 |ddv_scf|^2 =  2.785E-20

      iter #  22 total cpu time :  2165.3 secs   av.it.:  14.4
      thresh= 1.669E-11 alpha_mix =  0.700 |ddv_scf|^2 =  5.310E-21

     End of self-consistent calculation

     Convergence has been achieved 


     Representation #   2 mode #   2

     Self-consistent Calculation

      iter #   1 total cpu time :  2180.8 secs   av.it.:  10.0
      thresh= 1.000E-02 alpha_mix =  0.700 |ddv_scf|^2 =  6.613E-05

      iter #   2 total cpu time :  2203.7 secs   av.it.:  17.6
      thresh= 8.132E-04 alpha_mix =  0.700 |ddv_scf|^2 =  2.922E-03

      iter #   3 total cpu time :  2223.1 secs   av.it.:  14.2
      thresh= 5.405E-03 alpha_mix =  0.700 |ddv_scf|^2 =  1.811E-06

      iter #   4 total cpu time :  2244.9 secs   av.it.:  16.3
      thresh= 1.346E-04 alpha_mix =  0.700 |ddv_scf|^2 =  4.855E-07

      iter #   5 total cpu time :  2266.4 secs   av.it.:  16.1
      thresh= 6.968E-05 alpha_mix =  0.700 |ddv_scf|^2 =  5.712E-09

      iter #   6 total cpu time :  2289.4 secs   av.it.:  17.5
      thresh= 7.558E-06 alpha_mix =  0.700 |ddv_scf|^2 =  2.198E-10

      iter #   7 total cpu time :  2312.6 secs   av.it.:  17.7
      thresh= 1.483E-06 alpha_mix =  0.700 |ddv_scf|^2 =  8.229E-10

      iter #   8 total cpu time :  2334.2 secs   av.it.:  16.0
      thresh= 2.869E-06 alpha_mix =  0.700 |ddv_scf|^2 =  7.810E-10

      iter #   9 total cpu time :  2355.0 secs   av.it.:  15.4
      thresh= 2.795E-06 alpha_mix =  0.700 |ddv_scf|^2 =  1.075E-11

      iter #  10 total cpu time :  2377.3 secs   av.it.:  16.9
      thresh= 3.279E-07 alpha_mix =  0.700 |ddv_scf|^2 =  5.181E-12

      iter #  11 total cpu time :  2399.1 secs   av.it.:  16.2
      thresh= 2.276E-07 alpha_mix =  0.700 |ddv_scf|^2 =  2.786E-13

      iter #  12 total cpu time :  2422.0 secs   av.it.:  17.5
      thresh= 5.278E-08 alpha_mix =  0.700 |ddv_scf|^2 =  2.376E-13

      iter #  13 total cpu time :  2444.3 secs   av.it.:  16.9
      thresh= 4.874E-08 alpha_mix =  0.700 |ddv_scf|^2 =  5.931E-14

      iter #  14 total cpu time :  2466.8 secs   av.it.:  17.0
      thresh= 2.435E-08 alpha_mix =  0.700 |ddv_scf|^2 =  5.908E-15

      iter #  15 total cpu time :  2489.9 secs   av.it.:  17.8
      thresh= 7.686E-09 alpha_mix =  0.700 |ddv_scf|^2 =  1.385E-15

      iter #  16 total cpu time :  2511.9 secs   av.it.:  16.6
      thresh= 3.722E-09 alpha_mix =  0.700 |ddv_scf|^2 =  4.446E-16

      iter #  17 total cpu time :  2533.8 secs   av.it.:  16.5
      thresh= 2.109E-09 alpha_mix =  0.700 |ddv_scf|^2 =  1.211E-16

      iter #  18 total cpu time :  2556.1 secs   av.it.:  16.9
      thresh= 1.100E-09 alpha_mix =  0.700 |ddv_scf|^2 =  4.902E-17

      iter #  19 total cpu time :  2578.3 secs   av.it.:  16.8
      thresh= 7.002E-10 alpha_mix =  0.700 |ddv_scf|^2 =  1.665E-17

      iter #  20 total cpu time :  2599.6 secs   av.it.:  16.0
      thresh= 4.080E-10 alpha_mix =  0.700 |ddv_scf|^2 =  2.687E-18

      iter #  21 total cpu time :  2621.7 secs   av.it.:  16.7
      thresh= 1.639E-10 alpha_mix =  0.700 |ddv_scf|^2 =  9.081E-19

      iter #  22 total cpu time :  2644.0 secs   av.it.:  16.6
      thresh= 9.529E-11 alpha_mix =  0.700 |ddv_scf|^2 =  3.335E-19

      iter #  23 total cpu time :  2665.8 secs   av.it.:  16.1
      thresh= 5.775E-11 alpha_mix =  0.700 |ddv_scf|^2 =  4.950E-20

      iter #  24 total cpu time :  2689.5 secs   av.it.:  17.8
      thresh= 2.225E-11 alpha_mix =  0.700 |ddv_scf|^2 =  6.178E-20

      iter #  25 total cpu time :  2710.7 secs   av.it.:  15.7
      thresh= 2.485E-11 alpha_mix =  0.700 |ddv_scf|^2 =  5.248E-21

     End of self-consistent calculation

     Convergence has been achieved 


     Representation #   3 mode #   3

     Self-consistent Calculation

      iter #   1 total cpu time :  2729.1 secs   av.it.:  12.6
      thresh= 1.000E-02 alpha_mix =  0.700 |ddv_scf|^2 =  2.680E-04

      iter #   2 total cpu time :  3573.5 secs   av.it.:  17.4
      thresh= 1.637E-03 alpha_mix =  0.700 |ddv_scf|^2 =  1.033E-02

      iter #   3 total cpu time :  3593.3 secs   av.it.:  14.4
      thresh= 1.000E-02 alpha_mix =  0.700 |ddv_scf|^2 =  3.847E-05

      iter #   4 total cpu time :  3609.4 secs   av.it.:  16.2
      thresh= 6.203E-04 alpha_mix =  0.700 |ddv_scf|^2 =  8.953E-06

      iter #   5 total cpu time :  3621.8 secs   av.it.:  15.9
      thresh= 2.992E-04 alpha_mix =  0.700 |ddv_scf|^2 =  8.685E-08

      iter #   6 total cpu time :  3635.2 secs   av.it.:  17.3
      thresh= 2.947E-05 alpha_mix =  0.700 |ddv_scf|^2 =  1.304E-09

      iter #   7 total cpu time :  3654.9 secs   av.it.:  17.8
      thresh= 3.612E-06 alpha_mix =  0.700 |ddv_scf|^2 =  1.065E-09

      iter #   8 total cpu time :  3677.7 secs   av.it.:  16.8
      thresh= 3.263E-06 alpha_mix =  0.700 |ddv_scf|^2 =  6.437E-09

      iter #   9 total cpu time :  3698.9 secs   av.it.:  15.5
      thresh= 8.023E-06 alpha_mix =  0.700 |ddv_scf|^2 =  9.133E-11

      iter #  10 total cpu time :  3722.2 secs   av.it.:  17.2
      thresh= 9.556E-07 alpha_mix =  0.700 |ddv_scf|^2 =  2.199E-11

      iter #  11 total cpu time :  3743.8 secs   av.it.:  15.9
      thresh= 4.690E-07 alpha_mix =  0.700 |ddv_scf|^2 =  2.042E-11

      iter #  12 total cpu time :  3765.4 secs   av.it.:  15.8
      thresh= 4.519E-07 alpha_mix =  0.700 |ddv_scf|^2 =  2.750E-12

      iter #  13 total cpu time :  3788.0 secs   av.it.:  16.7
      thresh= 1.658E-07 alpha_mix =  0.700 |ddv_scf|^2 =  1.308E-12

      iter #  14 total cpu time :  3804.9 secs   av.it.:  15.8
      thresh= 1.144E-07 alpha_mix =  0.700 |ddv_scf|^2 =  2.297E-14

      iter #  15 total cpu time :  3818.6 secs   av.it.:  17.9
      thresh= 1.516E-08 alpha_mix =  0.700 |ddv_scf|^2 =  9.201E-14

      iter #  16 total cpu time :  3830.9 secs   av.it.:  15.7
      thresh= 3.033E-08 alpha_mix =  0.700 |ddv_scf|^2 =  3.878E-15

      iter #  17 total cpu time :  3844.2 secs   av.it.:  17.2
      thresh= 6.227E-09 alpha_mix =  0.700 |ddv_scf|^2 =  7.178E-16

      iter #  18 total cpu time :  3857.5 secs   av.it.:  17.2
      thresh= 2.679E-09 alpha_mix =  0.700 |ddv_scf|^2 =  1.886E-16

      iter #  19 total cpu time :  3870.7 secs   av.it.:  17.2
      thresh= 1.373E-09 alpha_mix =  0.700 |ddv_scf|^2 =  5.151E-17

      iter #  20 total cpu time :  3883.1 secs   av.it.:  15.9
      thresh= 7.177E-10 alpha_mix =  0.700 |ddv_scf|^2 =  1.589E-17

      iter #  21 total cpu time :  3896.1 secs   av.it.:  16.8
      thresh= 3.986E-10 alpha_mix =  0.700 |ddv_scf|^2 =  4.315E-18

      iter #  22 total cpu time :  3908.5 secs   av.it.:  15.9
      thresh= 2.077E-10 alpha_mix =  0.700 |ddv_scf|^2 =  5.316E-18

      iter #  23 total cpu time :  3920.1 secs   av.it.:  14.7
      thresh= 2.306E-10 alpha_mix =  0.700 |ddv_scf|^2 =  1.979E-19

      iter #  24 total cpu time :  3933.3 secs   av.it.:  17.1
      thresh= 4.448E-11 alpha_mix =  0.700 |ddv_scf|^2 =  2.595E-19

      iter #  25 total cpu time :  3946.0 secs   av.it.:  16.4
      thresh= 5.094E-11 alpha_mix =  0.700 |ddv_scf|^2 =  8.888E-20

      iter #  26 total cpu time :  3959.0 secs   av.it.:  16.8
      thresh= 2.981E-11 alpha_mix =  0.700 |ddv_scf|^2 =  3.657E-20

      iter #  27 total cpu time :  3971.2 secs   av.it.:  15.6
      thresh= 1.912E-11 alpha_mix =  0.700 |ddv_scf|^2 =  2.866E-21

     End of self-consistent calculation

     Convergence has been achieved 


     Representation #   4 mode #   4

     Self-consistent Calculation

      iter #   1 total cpu time :  3978.9 secs   av.it.:   8.1
      thresh= 1.000E-02 alpha_mix =  0.700 |ddv_scf|^2 =  6.332E-08

      iter #   2 total cpu time :  3991.8 secs   av.it.:  16.9
      thresh= 2.516E-05 alpha_mix =  0.700 |ddv_scf|^2 =  5.217E-09

      iter #   3 total cpu time :  4012.7 secs   av.it.:  16.8
      thresh= 7.223E-06 alpha_mix =  0.700 |ddv_scf|^2 =  1.607E-10

      iter #   4 total cpu time :  4035.0 secs   av.it.:  16.6
      thresh= 1.268E-06 alpha_mix =  0.700 |ddv_scf|^2 =  5.358E-13

      iter #   5 total cpu time :  4057.3 secs   av.it.:  16.6
      thresh= 7.320E-08 alpha_mix =  0.700 |ddv_scf|^2 =  1.505E-14

      iter #   6 total cpu time :  4080.0 secs   av.it.:  16.9
      thresh= 1.227E-08 alpha_mix =  0.700 |ddv_scf|^2 =  9.108E-17

      iter #   7 total cpu time :  4102.5 secs   av.it.:  16.8
      thresh= 9.543E-10 alpha_mix =  0.700 |ddv_scf|^2 =  8.805E-19

      iter #   8 total cpu time :  4125.1 secs   av.it.:  16.8
      thresh= 9.383E-11 alpha_mix =  0.700 |ddv_scf|^2 =  2.285E-20

      iter #   9 total cpu time :  4148.0 secs   av.it.:  17.3
      thresh= 1.512E-11 alpha_mix =  0.700 |ddv_scf|^2 =  4.746E-22

     End of self-consistent calculation

     Convergence has been achieved 


     Representation #   5 mode #   5

     Self-consistent Calculation

      iter #   1 total cpu time :  4157.4 secs   av.it.:   8.5
      thresh= 1.000E-02 alpha_mix =  0.700 |ddv_scf|^2 =  9.045E-08

      iter #   2 total cpu time :  4171.0 secs   av.it.:  17.6
      thresh= 3.008E-05 alpha_mix =  0.700 |ddv_scf|^2 =  1.165E-08

      iter #   3 total cpu time :  4184.6 secs   av.it.:  17.6
      thresh= 1.079E-05 alpha_mix =  0.700 |ddv_scf|^2 =  3.323E-10

      iter #   4 total cpu time :  4197.9 secs   av.it.:  17.0
      thresh= 1.823E-06 alpha_mix =  0.700 |ddv_scf|^2 =  1.774E-12

      iter #   5 total cpu time :  4211.6 secs   av.it.:  17.8
      thresh= 1.332E-07 alpha_mix =  0.700 |ddv_scf|^2 =  7.231E-14

      iter #   6 total cpu time :  4226.1 secs   av.it.:  17.8
      thresh= 2.689E-08 alpha_mix =  0.700 |ddv_scf|^2 =  5.944E-16

      iter #   7 total cpu time :  4249.6 secs   av.it.:  17.7
      thresh= 2.438E-09 alpha_mix =  0.700 |ddv_scf|^2 =  1.965E-17

      iter #   8 total cpu time :  4273.5 secs   av.it.:  17.9
      thresh= 4.433E-10 alpha_mix =  0.700 |ddv_scf|^2 =  4.744E-19

      iter #   9 total cpu time :  4297.6 secs   av.it.:  18.2
      thresh= 6.887E-11 alpha_mix =  0.700 |ddv_scf|^2 =  8.791E-21

     End of self-consistent calculation

     Convergence has been achieved 


     Representation #   6 mode #   6

     Self-consistent Calculation

      iter #   1 total cpu time :  4314.1 secs   av.it.:  10.9
      thresh= 1.000E-02 alpha_mix =  0.700 |ddv_scf|^2 =  1.349E-06

      iter #   2 total cpu time :  4337.5 secs   av.it.:  17.7
      thresh= 1.161E-04 alpha_mix =  0.700 |ddv_scf|^2 =  1.472E-07

      iter #   3 total cpu time :  4360.7 secs   av.it.:  17.6
      thresh= 3.836E-05 alpha_mix =  0.700 |ddv_scf|^2 =  3.207E-09

      iter #   4 total cpu time :  4383.7 secs   av.it.:  17.5
      thresh= 5.663E-06 alpha_mix =  0.700 |ddv_scf|^2 =  1.796E-10

      iter #   5 total cpu time :  4406.6 secs   av.it.:  17.4
      thresh= 1.340E-06 alpha_mix =  0.700 |ddv_scf|^2 =  8.391E-13

      iter #   6 total cpu time :  4423.9 secs   av.it.:  18.3
      thresh= 9.160E-08 alpha_mix =  0.700 |ddv_scf|^2 =  2.703E-15

      iter #   7 total cpu time :  4437.9 secs   av.it.:  18.1
      thresh= 5.199E-09 alpha_mix =  0.700 |ddv_scf|^2 =  1.181E-16

      iter #   8 total cpu time :  4452.0 secs   av.it.:  18.3
      thresh= 1.087E-09 alpha_mix =  0.700 |ddv_scf|^2 =  1.454E-18

      iter #   9 total cpu time :  4466.0 secs   av.it.:  18.4
      thresh= 1.206E-10 alpha_mix =  0.700 |ddv_scf|^2 =  6.344E-20

      iter #  10 total cpu time :  4479.9 secs   av.it.:  18.0
      thresh= 2.519E-11 alpha_mix =  0.700 |ddv_scf|^2 =  3.395E-21

     End of self-consistent calculation

     Convergence has been achieved 


     Representation #   7 mode #   7

     Self-consistent Calculation

      iter #   1 total cpu time :  4488.2 secs   av.it.:   8.9
      thresh= 1.000E-02 alpha_mix =  0.700 |ddv_scf|^2 =  3.594E-06

      iter #   2 total cpu time :  4505.1 secs   av.it.:  16.7
      thresh= 1.896E-04 alpha_mix =  0.700 |ddv_scf|^2 =  1.568E-05

      iter #   3 total cpu time :  4517.0 secs   av.it.:  15.2
      thresh= 3.959E-04 alpha_mix =  0.700 |ddv_scf|^2 =  1.225E-07

      iter #   4 total cpu time :  4529.5 secs   av.it.:  16.0
      thresh= 3.500E-05 alpha_mix =  0.700 |ddv_scf|^2 =  6.550E-10

      iter #   5 total cpu time :  4542.4 secs   av.it.:  16.9
      thresh= 2.559E-06 alpha_mix =  0.700 |ddv_scf|^2 =  5.975E-11

      iter #   6 total cpu time :  4555.5 secs   av.it.:  17.0
      thresh= 7.730E-07 alpha_mix =  0.700 |ddv_scf|^2 =  5.553E-12

      iter #   7 total cpu time :  4568.7 secs   av.it.:  17.0
      thresh= 2.357E-07 alpha_mix =  0.700 |ddv_scf|^2 =  1.903E-13

      iter #   8 total cpu time :  4581.5 secs   av.it.:  16.6
      thresh= 4.362E-08 alpha_mix =  0.700 |ddv_scf|^2 =  1.127E-14

      iter #   9 total cpu time :  4594.3 secs   av.it.:  16.6
      thresh= 1.062E-08 alpha_mix =  0.700 |ddv_scf|^2 =  5.463E-15

      iter #  10 total cpu time :  4607.1 secs   av.it.:  16.7
      thresh= 7.391E-09 alpha_mix =  0.700 |ddv_scf|^2 =  7.874E-16

      iter #  11 total cpu time :  4620.1 secs   av.it.:  16.7
      thresh= 2.806E-09 alpha_mix =  0.700 |ddv_scf|^2 =  6.998E-17

      iter #  12 total cpu time :  4632.9 secs   av.it.:  16.7
      thresh= 8.365E-10 alpha_mix =  0.700 |ddv_scf|^2 =  2.239E-18

      iter #  13 total cpu time :  4646.5 secs   av.it.:  17.8
      thresh= 1.496E-10 alpha_mix =  0.700 |ddv_scf|^2 =  9.191E-20

      iter #  14 total cpu time :  4660.3 secs   av.it.:  18.1
      thresh= 3.032E-11 alpha_mix =  0.700 |ddv_scf|^2 =  5.382E-21

     End of self-consistent calculation

     Convergence has been achieved 


     Representation #   8 mode #   8

     Self-consistent Calculation

      iter #   1 total cpu time :  4670.5 secs   av.it.:  12.0
      thresh= 1.000E-02 alpha_mix =  0.700 |ddv_scf|^2 =  3.191E-05

      iter #   2 total cpu time :  4683.8 secs   av.it.:  17.3
      thresh= 5.649E-04 alpha_mix =  0.700 |ddv_scf|^2 =  1.727E-04

      iter #   3 total cpu time :  4695.8 secs   av.it.:  15.2
      thresh= 1.314E-03 alpha_mix =  0.700 |ddv_scf|^2 =  1.709E-07

      iter #   4 total cpu time :  4709.1 secs   av.it.:  17.2
      thresh= 4.135E-05 alpha_mix =  0.700 |ddv_scf|^2 =  5.955E-09

      iter #   5 total cpu time :  4722.3 secs   av.it.:  17.0
      thresh= 7.717E-06 alpha_mix =  0.700 |ddv_scf|^2 =  2.816E-10

      iter #   6 total cpu time :  4735.9 secs   av.it.:  17.8
      thresh= 1.678E-06 alpha_mix =  0.700 |ddv_scf|^2 =  1.951E-11

      iter #   7 total cpu time :  4749.4 secs   av.it.:  17.5
      thresh= 4.417E-07 alpha_mix =  0.700 |ddv_scf|^2 =  2.973E-12

      iter #   8 total cpu time :  4762.3 secs   av.it.:  16.7
      thresh= 1.724E-07 alpha_mix =  0.700 |ddv_scf|^2 =  9.390E-15

      iter #   9 total cpu time :  4776.2 secs   av.it.:  18.2
      thresh= 9.690E-09 alpha_mix =  0.700 |ddv_scf|^2 =  9.964E-15

      iter #  10 total cpu time :  4788.9 secs   av.it.:  16.4
      thresh= 9.982E-09 alpha_mix =  0.700 |ddv_scf|^2 =  3.687E-15

      iter #  11 total cpu time :  4801.7 secs   av.it.:  16.5
      thresh= 6.072E-09 alpha_mix =  0.700 |ddv_scf|^2 =  3.279E-17

      iter #  12 total cpu time :  4815.6 secs   av.it.:  18.2
      thresh= 5.726E-10 alpha_mix =  0.700 |ddv_scf|^2 =  1.636E-18

      iter #  13 total cpu time :  4828.7 secs   av.it.:  17.1
      thresh= 1.279E-10 alpha_mix =  0.700 |ddv_scf|^2 =  4.758E-19

      iter #  14 total cpu time :  4841.8 secs   av.it.:  16.9
      thresh= 6.898E-11 alpha_mix =  0.700 |ddv_scf|^2 =  4.762E-20

      iter #  15 total cpu time :  4854.6 secs   av.it.:  16.6
      thresh= 2.182E-11 alpha_mix =  0.700 |ddv_scf|^2 =  4.463E-21

     End of self-consistent calculation

     Convergence has been achieved 


     Representation #   9 mode #   9

     Self-consistent Calculation

      iter #   1 total cpu time :  4862.9 secs   av.it.:   9.1
      thresh= 1.000E-02 alpha_mix =  0.700 |ddv_scf|^2 =  1.683E-06

      iter #   2 total cpu time :  4876.1 secs   av.it.:  17.2
      thresh= 1.297E-04 alpha_mix =  0.700 |ddv_scf|^2 =  8.311E-06

      iter #   3 total cpu time :  4888.0 secs   av.it.:  15.2
      thresh= 2.883E-04 alpha_mix =  0.700 |ddv_scf|^2 =  2.536E-08

      iter #   4 total cpu time :  4901.0 secs   av.it.:  16.8
      thresh= 1.592E-05 alpha_mix =  0.700 |ddv_scf|^2 =  5.723E-10

      iter #   5 total cpu time :  4914.1 secs   av.it.:  17.0
      thresh= 2.392E-06 alpha_mix =  0.700 |ddv_scf|^2 =  2.300E-11

      iter #   6 total cpu time :  4927.6 secs   av.it.:  17.5
      thresh= 4.796E-07 alpha_mix =  0.700 |ddv_scf|^2 =  1.585E-12

      iter #   7 total cpu time :  4940.8 secs   av.it.:  17.1
      thresh= 1.259E-07 alpha_mix =  0.700 |ddv_scf|^2 =  2.531E-14

      iter #   8 total cpu time :  4954.5 secs   av.it.:  18.0
      thresh= 1.591E-08 alpha_mix =  0.700 |ddv_scf|^2 =  1.080E-14

      iter #   9 total cpu time :  4967.2 secs   av.it.:  16.4
      thresh= 1.039E-08 alpha_mix =  0.700 |ddv_scf|^2 =  1.373E-15

      iter #  10 total cpu time :  4980.8 secs   av.it.:  17.7
      thresh= 3.706E-09 alpha_mix =  0.700 |ddv_scf|^2 =  2.761E-15

      iter #  11 total cpu time :  4992.9 secs   av.it.:  15.4
      thresh= 5.254E-09 alpha_mix =  0.700 |ddv_scf|^2 =  2.363E-17

      iter #  12 total cpu time :  5006.5 secs   av.it.:  17.9
      thresh= 4.861E-10 alpha_mix =  0.700 |ddv_scf|^2 =  1.748E-18

      iter #  13 total cpu time :  5019.7 secs   av.it.:  17.2
      thresh= 1.322E-10 alpha_mix =  0.700 |ddv_scf|^2 =  6.279E-20

      iter #  14 total cpu time :  5033.5 secs   av.it.:  17.9
      thresh= 2.506E-11 alpha_mix =  0.700 |ddv_scf|^2 =  5.424E-21

     End of self-consistent calculation

     Convergence has been achieved 
 
     Number of q in the star =    1
     List of q in the star:
          1   0.000000000   0.286400212   0.000000000
     In addition there is the -q list: 
          1   0.000000000  -0.286400212   0.000000000

     Diagonalizing the dynamical matrix

     q = (    0.000000000   0.286400212   0.000000000 ) 

 **************************************************************************
     freq (    1) =       2.562640 [THz] =      85.480459 [cm-1]
     freq (    2) =       3.282537 [THz] =     109.493660 [cm-1]
     freq (    3) =       5.205040 [THz] =     173.621451 [cm-1]
     freq (    4) =       8.617922 [THz] =     287.462941 [cm-1]
     freq (    5) =       9.412940 [THz] =     313.981869 [cm-1]
     freq (    6) =      10.465196 [THz] =     349.081350 [cm-1]
     freq (    7) =      10.951574 [THz] =     365.305180 [cm-1]
     freq (    8) =      11.968780 [THz] =     399.235532 [cm-1]
     freq (    9) =      12.386012 [THz] =     413.152891 [cm-1]
 **************************************************************************

     Mode symmetry, C_2v (mm2)  point group:

     freq (   1-   1) =         85.5  [cm-1]   --> B_2  D_4  S_4      
     freq (   2-   2) =        109.5  [cm-1]   --> B_1  D_3  S_3      
     freq (   3-   3) =        173.6  [cm-1]   --> A_1  D_1  S_1      
     freq (   4-   4) =        287.5  [cm-1]   --> A_2  D_2  S_2      
     freq (   5-   5) =        314.0  [cm-1]   --> B_2  D_4  S_4      
     freq (   6-   6) =        349.1  [cm-1]   --> A_1  D_1  S_1      
     freq (   7-   7) =        365.3  [cm-1]   --> B_1  D_3  S_3      
     freq (   8-   8) =        399.2  [cm-1]   --> A_1  D_1  S_1      
     freq (   9-   9) =        413.2  [cm-1]   --> B_2  D_4  S_4      

     Calculation of q =    0.0000000  -0.5728004   0.0000000
 
     Parallelization info
     --------------------
     sticks:   dense  smooth     PW     G-vecs:    dense   smooth      PW
     Min          63      24      8                 6341     1592     310
     Max          64      25      9                 6354     1611     327
     Sum        1261     499    163               126991    32155    6327
 


     bravais-lattice index     =            0
     lattice parameter (alat)  =       5.9830  a.u.
     unit-cell volume          =     671.9051 (a.u.)^3
     number of atoms/cell      =            3
     number of atomic types    =            2
     number of electrons       =        26.00
     number of Kohn-Sham states=           13
     kinetic-energy cutoff     =      50.0000  Ry
     charge density cutoff     =     500.0000  Ry
     Exchange-correlation= PBE
                           (   1   4   3   4   0   0   0)

     celldm(1)=   5.983000  celldm(2)=   0.000000  celldm(3)=   0.000000
     celldm(4)=   0.000000  celldm(5)=   0.000000  celldm(6)=   0.000000

     crystal axes: (cart. coord. in units of alat)
               a(1) = (   1.008068   0.000000   0.000000 )  
               a(2) = (  -0.504034   0.872904   0.000000 )  
               a(3) = (   0.000000   0.000000   3.565287 )  

     reciprocal axes: (cart. coord. in units 2 pi/alat)
               b(1) = (  0.991997  0.572800  0.000000 )  
               b(2) = (  0.000000  1.145601  0.000000 )  
               b(3) = (  0.000000  0.000000  0.280482 )  


     PseudoPot. # 1 for Mo read from file:
     ../Pseudo/Mo.pbe-spn-kjpaw_psl.0.2.UPF
     MD5 check sum: 99c4efbabb9e14294ed14bd31c5e2f8a
     Pseudo is Projector augmented-wave + core cor, Zval = 14.0
     Generated using "atomic" code by A. Dal Corso  v.5.0.2 svn rev. 9415
     Shape of augmentation charge: PSQ
     Using radial grid of 1229 points,  6 beta functions with: 
                l(1) =   0
                l(2) =   0
                l(3) =   1
                l(4) =   1
                l(5) =   2
                l(6) =   2
     Q(r) pseudized with 0 coefficients 


     PseudoPot. # 2 for S  read from file:
     ../Pseudo/S.pbe-n-kjpaw_psl.0.1.UPF
     MD5 check sum: 5138ed5699b2c5d2fdac7c35a9631f5b
     Pseudo is Projector augmented-wave + core cor, Zval =  6.0
     Generated using "atomic" code by A. Dal Corso  v.5.0.2 svn rev. 9415
     Shape of augmentation charge: PSQ
     Using radial grid of 1151 points,  4 beta functions with: 
                l(1) =   0
                l(2) =   0
                l(3) =   1
                l(4) =   1
     Q(r) pseudized with 0 coefficients 


     atomic species   valence    mass     pseudopotential
        Mo            14.00    95.94000     Mo( 1.00)
        S              6.00    32.06500     S ( 1.00)

      4 Sym. Ops. (no inversion) found



   Cartesian axes

     site n.     atom                  positions (alat units)
         1           Mo  tau(   1) = (   0.0000000   0.0030498   0.0000000  )
         2           S   tau(   2) = (   0.0000000   0.5850225   0.4949137  )
         3           S   tau(   3) = (   0.0000000   0.5850225  -0.4949137  )

     number of k points=   182

     Number of k-points >= 100: set verbosity='high' to print them.

     Dense  grid:   126991 G-vectors     FFT dimensions: (  45,  45, 160)

     Smooth grid:    32155 G-vectors     FFT dimensions: (  27,  27, 100)

     Estimated max dynamical RAM per process >      24.23 MB

     Estimated total dynamical RAM >     484.68 MB

     Check: negative core charge=   -0.000001

     The potential is recalculated from file :
     ./_ph0/MoS2.save/charge-density


     negative rho (up, down):  7.752E-08 0.000E+00
     Starting wfcs are   21 atomic wfcs
     Checking if some PAW data can be deallocated... 

     Band Structure Calculation
     Davidson diagonalization with overlap

     ethr =  3.85E-11,  avg # of iterations = 21.1

     total cpu time spent up to now is      120.1 secs

     End of band structure calculation

     Number of k-points >= 100: set verbosity='high' to print the bands.

     highest occupied level (ev):     2.8095

     Writing output data file ./_ph0/MoS2.save/

                                                                                

     bravais-lattice index     =            0
     lattice parameter (alat)  =       5.9830  a.u.
     unit-cell volume          =     671.9051 (a.u.)^3
     number of atoms/cell      =            3
     number of atomic types    =            2
     kinetic-energy cut-off    =      50.0000  Ry
     charge density cut-off    =     500.0000  Ry
     convergence threshold     =      1.0E-20
     beta                      =       0.7000
     number of iterations used =            4
     Exchange-correlation= PBE
                           (   1   4   3   4   0   0   0)


     celldm(1)=    5.98300  celldm(2)=    0.00000  celldm(3)=    0.00000
     celldm(4)=    0.00000  celldm(5)=    0.00000  celldm(6)=    0.00000

     crystal axes: (cart. coord. in units of alat)
               a(1) = (  1.0081  0.0000  0.0000 )  
               a(2) = ( -0.5040  0.8729  0.0000 )  
               a(3) = (  0.0000  0.0000  3.5653 )  

     reciprocal axes: (cart. coord. in units 2 pi/alat)
               b(1) = (  0.9920  0.5728  0.0000 )  
               b(2) = (  0.0000  1.1456  0.0000 )  
               b(3) = (  0.0000  0.0000  0.2805 )  


     Atoms inside the unit cell: 

     Cartesian axes

     site n.  atom      mass           positions (alat units)
        1     Mo  95.9400   tau(    1) = (    0.00000    0.00305    0.00000  )
        2     S   32.0650   tau(    2) = (    0.00000    0.58502    0.49491  )
        3     S   32.0650   tau(    3) = (    0.00000    0.58502   -0.49491  )

     Computing dynamical matrix for 
                    q = (   0.0000000  -0.5728004   0.0000000 )
 
      5 Sym.Ops. (with q -> -q+G )


     G cutoff =  453.3653  (   6351 G-vectors)     FFT grid: ( 45, 45,160)
     G cutoff =  181.3461  (   1611 G-vectors)  smooth grid: ( 27, 27,100)
     number of k points=   182

     PseudoPot. # 1 for Mo read from file:
     ../Pseudo/Mo.pbe-spn-kjpaw_psl.0.2.UPF
     MD5 check sum: 99c4efbabb9e14294ed14bd31c5e2f8a
     Pseudo is Projector augmented-wave + core cor, Zval = 14.0
     Generated using "atomic" code by A. Dal Corso  v.5.0.2 svn rev. 9415
     Shape of augmentation charge: PSQ
     Using radial grid of 1229 points,  6 beta functions with: 
                l(1) =   0
                l(2) =   0
                l(3) =   1
                l(4) =   1
                l(5) =   2
                l(6) =   2
     Q(r) pseudized with 0 coefficients 


     PseudoPot. # 2 for S  read from file:
     ../Pseudo/S.pbe-n-kjpaw_psl.0.1.UPF
     MD5 check sum: 5138ed5699b2c5d2fdac7c35a9631f5b
     Pseudo is Projector augmented-wave + core cor, Zval =  6.0
     Generated using "atomic" code by A. Dal Corso  v.5.0.2 svn rev. 9415
     Shape of augmentation charge: PSQ
     Using radial grid of 1151 points,  4 beta functions with: 
                l(1) =   0
                l(2) =   0
                l(3) =   1
                l(4) =   1
     Q(r) pseudized with 0 coefficients 


     Mode symmetry, C_2v (mm2)  point group:


     Atomic displacements:
     There are    9 irreducible representations

     Representation     1      1 modes -  To be done

     Representation     2      1 modes -  To be done

     Representation     3      1 modes -  To be done

     Representation     4      1 modes -  To be done

     Representation     5      1 modes -  To be done

     Representation     6      1 modes -  To be done

     Representation     7      1 modes -  To be done

     Representation     8      1 modes -  To be done

     Representation     9      1 modes -  To be done



     Alpha used in Ewald sum =   2.8000

     negative rho (up, down):  7.752E-08 0.000E+00
     PHONON       :      1h17m CPU      1h24m WALL



     Representation #   1 mode #   1

     Self-consistent Calculation

      iter #   1 total cpu time :  5072.6 secs   av.it.:   9.9
      thresh= 1.000E-02 alpha_mix =  0.700 |ddv_scf|^2 =  3.472E-06

      iter #   2 total cpu time :  5080.2 secs   av.it.:  18.4
      thresh= 1.863E-04 alpha_mix =  0.700 |ddv_scf|^2 =  4.926E-05

      iter #   3 total cpu time :  5086.9 secs   av.it.:  15.8
      thresh= 7.019E-04 alpha_mix =  0.700 |ddv_scf|^2 =  3.676E-06

      iter #   4 total cpu time :  5093.8 secs   av.it.:  16.2
      thresh= 1.917E-04 alpha_mix =  0.700 |ddv_scf|^2 =  4.563E-08

      iter #   5 total cpu time :  5100.9 secs   av.it.:  16.8
      thresh= 2.136E-05 alpha_mix =  0.700 |ddv_scf|^2 =  3.094E-09

      iter #   6 total cpu time :  5108.2 secs   av.it.:  17.2
      thresh= 5.562E-06 alpha_mix =  0.700 |ddv_scf|^2 =  1.102E-10

      iter #   7 total cpu time :  5115.4 secs   av.it.:  17.3
      thresh= 1.050E-06 alpha_mix =  0.700 |ddv_scf|^2 =  2.343E-11

      iter #   8 total cpu time :  5122.5 secs   av.it.:  16.8
      thresh= 4.841E-07 alpha_mix =  0.700 |ddv_scf|^2 =  2.725E-13

      iter #   9 total cpu time :  5130.1 secs   av.it.:  18.2
      thresh= 5.220E-08 alpha_mix =  0.700 |ddv_scf|^2 =  1.712E-14

      iter #  10 total cpu time :  5137.3 secs   av.it.:  17.3
      thresh= 1.308E-08 alpha_mix =  0.700 |ddv_scf|^2 =  3.302E-15

      iter #  11 total cpu time :  5144.7 secs   av.it.:  17.8
      thresh= 5.746E-09 alpha_mix =  0.700 |ddv_scf|^2 =  1.235E-15

      iter #  12 total cpu time :  5151.8 secs   av.it.:  16.8
      thresh= 3.514E-09 alpha_mix =  0.700 |ddv_scf|^2 =  1.326E-17

      iter #  13 total cpu time :  5159.3 secs   av.it.:  17.7
      thresh= 3.642E-10 alpha_mix =  0.700 |ddv_scf|^2 =  1.716E-18

      iter #  14 total cpu time :  5166.9 secs   av.it.:  18.0
      thresh= 1.310E-10 alpha_mix =  0.700 |ddv_scf|^2 =  5.609E-19

      iter #  15 total cpu time :  5174.4 secs   av.it.:  17.8
      thresh= 7.490E-11 alpha_mix =  0.700 |ddv_scf|^2 =  2.197E-19

      iter #  16 total cpu time :  5181.3 secs   av.it.:  16.6
      thresh= 4.687E-11 alpha_mix =  0.700 |ddv_scf|^2 =  1.903E-21

     End of self-consistent calculation

     Convergence has been achieved 


     Representation #   2 mode #   2

     Self-consistent Calculation

      iter #   1 total cpu time :  5186.1 secs   av.it.:   9.5
      thresh= 1.000E-02 alpha_mix =  0.700 |ddv_scf|^2 =  7.057E-06

      iter #   2 total cpu time :  5193.6 secs   av.it.:  17.8
      thresh= 2.656E-04 alpha_mix =  0.700 |ddv_scf|^2 =  1.644E-04

      iter #   3 total cpu time :  5200.1 secs   av.it.:  15.5
      thresh= 1.282E-03 alpha_mix =  0.700 |ddv_scf|^2 =  1.173E-06

      iter #   4 total cpu time :  5207.0 secs   av.it.:  16.1
      thresh= 1.083E-04 alpha_mix =  0.700 |ddv_scf|^2 =  8.654E-09

      iter #   5 total cpu time :  5215.4 secs   av.it.:  17.2
      thresh= 9.303E-06 alpha_mix =  0.700 |ddv_scf|^2 =  4.864E-10

      iter #   6 total cpu time :  5222.7 secs   av.it.:  17.4
      thresh= 2.205E-06 alpha_mix =  0.700 |ddv_scf|^2 =  8.599E-11

      iter #   7 total cpu time :  5229.9 secs   av.it.:  17.5
      thresh= 9.273E-07 alpha_mix =  0.700 |ddv_scf|^2 =  2.294E-11

      iter #   8 total cpu time :  5237.0 secs   av.it.:  16.7
      thresh= 4.790E-07 alpha_mix =  0.700 |ddv_scf|^2 =  2.116E-13

      iter #   9 total cpu time :  5244.6 secs   av.it.:  18.4
      thresh= 4.600E-08 alpha_mix =  0.700 |ddv_scf|^2 =  3.935E-14

      iter #  10 total cpu time :  5251.9 secs   av.it.:  17.7
      thresh= 1.984E-08 alpha_mix =  0.700 |ddv_scf|^2 =  1.496E-13

      iter #  11 total cpu time :  5258.7 secs   av.it.:  15.9
      thresh= 3.868E-08 alpha_mix =  0.700 |ddv_scf|^2 =  1.106E-14

      iter #  12 total cpu time :  5266.0 secs   av.it.:  17.2
      thresh= 1.051E-08 alpha_mix =  0.700 |ddv_scf|^2 =  4.010E-16

      iter #  13 total cpu time :  5273.7 secs   av.it.:  18.7
      thresh= 2.002E-09 alpha_mix =  0.700 |ddv_scf|^2 =  8.333E-16

      iter #  14 total cpu time :  5280.8 secs   av.it.:  16.8
      thresh= 2.887E-09 alpha_mix =  0.700 |ddv_scf|^2 =  1.135E-17

      iter #  15 total cpu time :  5288.3 secs   av.it.:  18.2
      thresh= 3.369E-10 alpha_mix =  0.700 |ddv_scf|^2 =  1.065E-17

      iter #  16 total cpu time :  5295.4 secs   av.it.:  16.9
      thresh= 3.263E-10 alpha_mix =  0.700 |ddv_scf|^2 =  3.661E-19

      iter #  17 total cpu time :  5302.7 secs   av.it.:  17.6
      thresh= 6.051E-11 alpha_mix =  0.700 |ddv_scf|^2 =  4.657E-21

     End of self-consistent calculation

     Convergence has been achieved 


     Representation #   3 mode #   3

     Self-consistent Calculation

      iter #   1 total cpu time :  5308.4 secs   av.it.:  12.2
      thresh= 1.000E-02 alpha_mix =  0.700 |ddv_scf|^2 =  2.342E-05

      iter #   2 total cpu time :  5315.9 secs   av.it.:  17.9
      thresh= 4.840E-04 alpha_mix =  0.700 |ddv_scf|^2 =  6.163E-05

      iter #   3 total cpu time :  5322.9 secs   av.it.:  16.8
      thresh= 7.851E-04 alpha_mix =  0.700 |ddv_scf|^2 =  8.455E-06

      iter #   4 total cpu time :  5329.7 secs   av.it.:  15.8
      thresh= 2.908E-04 alpha_mix =  0.700 |ddv_scf|^2 =  7.312E-07

      iter #   5 total cpu time :  5336.6 secs   av.it.:  16.5
      thresh= 8.551E-05 alpha_mix =  0.700 |ddv_scf|^2 =  4.771E-08

      iter #   6 total cpu time :  5343.8 secs   av.it.:  17.3
      thresh= 2.184E-05 alpha_mix =  0.700 |ddv_scf|^2 =  6.128E-09

      iter #   7 total cpu time :  5351.1 secs   av.it.:  17.5
      thresh= 7.828E-06 alpha_mix =  0.700 |ddv_scf|^2 =  1.728E-09

      iter #   8 total cpu time :  5358.3 secs   av.it.:  17.1
      thresh= 4.156E-06 alpha_mix =  0.700 |ddv_scf|^2 =  7.454E-11

      iter #   9 total cpu time :  5365.5 secs   av.it.:  17.4
      thresh= 8.634E-07 alpha_mix =  0.700 |ddv_scf|^2 =  6.596E-12

      iter #  10 total cpu time :  5373.0 secs   av.it.:  17.8
      thresh= 2.568E-07 alpha_mix =  0.700 |ddv_scf|^2 =  1.015E-12

      iter #  11 total cpu time :  5380.5 secs   av.it.:  18.0
      thresh= 1.008E-07 alpha_mix =  0.700 |ddv_scf|^2 =  2.190E-13

      iter #  12 total cpu time :  5387.8 secs   av.it.:  17.6
      thresh= 4.680E-08 alpha_mix =  0.700 |ddv_scf|^2 =  4.460E-15

      iter #  13 total cpu time :  5395.2 secs   av.it.:  17.9
      thresh= 6.679E-09 alpha_mix =  0.700 |ddv_scf|^2 =  9.731E-15

      iter #  14 total cpu time :  5402.1 secs   av.it.:  16.0
      thresh= 9.864E-09 alpha_mix =  0.700 |ddv_scf|^2 =  7.496E-17

      iter #  15 total cpu time :  5409.8 secs   av.it.:  18.6
      thresh= 8.658E-10 alpha_mix =  0.700 |ddv_scf|^2 =  1.011E-16

      iter #  16 total cpu time :  5417.1 secs   av.it.:  17.6
      thresh= 1.005E-09 alpha_mix =  0.700 |ddv_scf|^2 =  2.584E-17

      iter #  17 total cpu time :  5424.6 secs   av.it.:  17.0
      thresh= 5.084E-10 alpha_mix =  0.700 |ddv_scf|^2 =  3.696E-18

      iter #  18 total cpu time :  5431.7 secs   av.it.:  16.9
      thresh= 1.922E-10 alpha_mix =  0.700 |ddv_scf|^2 =  2.454E-19

      iter #  19 total cpu time :  5439.2 secs   av.it.:  18.1
      thresh= 4.954E-11 alpha_mix =  0.700 |ddv_scf|^2 =  7.779E-21

     End of self-consistent calculation

     Convergence has been achieved 


     Representation #   4 mode #   4

     Self-consistent Calculation

      iter #   1 total cpu time :  5443.5 secs   av.it.:   8.2
      thresh= 1.000E-02 alpha_mix =  0.700 |ddv_scf|^2 =  8.489E-08

      iter #   2 total cpu time :  5450.6 secs   av.it.:  16.6
      thresh= 2.914E-05 alpha_mix =  0.700 |ddv_scf|^2 =  8.751E-09

      iter #   3 total cpu time :  5459.1 secs   av.it.:  16.6
      thresh= 9.355E-06 alpha_mix =  0.700 |ddv_scf|^2 =  2.042E-10

      iter #   4 total cpu time :  5466.2 secs   av.it.:  16.5
      thresh= 1.429E-06 alpha_mix =  0.700 |ddv_scf|^2 =  7.849E-13

      iter #   5 total cpu time :  5473.2 secs   av.it.:  16.5
      thresh= 8.860E-08 alpha_mix =  0.700 |ddv_scf|^2 =  1.775E-14

      iter #   6 total cpu time :  5480.4 secs   av.it.:  16.7
      thresh= 1.332E-08 alpha_mix =  0.700 |ddv_scf|^2 =  1.271E-16

      iter #   7 total cpu time :  5487.5 secs   av.it.:  16.8
      thresh= 1.127E-09 alpha_mix =  0.700 |ddv_scf|^2 =  5.490E-19

      iter #   8 total cpu time :  5494.6 secs   av.it.:  16.5
      thresh= 7.409E-11 alpha_mix =  0.700 |ddv_scf|^2 =  3.438E-20

      iter #   9 total cpu time :  5501.8 secs   av.it.:  17.1
      thresh= 1.854E-11 alpha_mix =  0.700 |ddv_scf|^2 =  2.086E-22

     End of self-consistent calculation

     Convergence has been achieved 


     Representation #   5 mode #   5

     Self-consistent Calculation

      iter #   1 total cpu time :  5506.2 secs   av.it.:   8.5
      thresh= 1.000E-02 alpha_mix =  0.700 |ddv_scf|^2 =  1.223E-07

      iter #   2 total cpu time :  5513.7 secs   av.it.:  17.5
      thresh= 3.497E-05 alpha_mix =  0.700 |ddv_scf|^2 =  2.060E-08

      iter #   3 total cpu time :  5521.1 secs   av.it.:  17.4
      thresh= 1.435E-05 alpha_mix =  0.700 |ddv_scf|^2 =  3.630E-10

      iter #   4 total cpu time :  5528.3 secs   av.it.:  16.9
      thresh= 1.905E-06 alpha_mix =  0.700 |ddv_scf|^2 =  2.337E-12

      iter #   5 total cpu time :  5535.8 secs   av.it.:  17.7
      thresh= 1.529E-07 alpha_mix =  0.700 |ddv_scf|^2 =  1.003E-13

      iter #   6 total cpu time :  5543.3 secs   av.it.:  17.7
      thresh= 3.167E-08 alpha_mix =  0.700 |ddv_scf|^2 =  7.829E-16

      iter #   7 total cpu time :  5550.7 secs   av.it.:  17.5
      thresh= 2.798E-09 alpha_mix =  0.700 |ddv_scf|^2 =  3.244E-17

      iter #   8 total cpu time :  5558.2 secs   av.it.:  17.8
      thresh= 5.696E-10 alpha_mix =  0.700 |ddv_scf|^2 =  5.093E-19

      iter #   9 total cpu time :  5565.7 secs   av.it.:  17.5
      thresh= 7.137E-11 alpha_mix =  0.700 |ddv_scf|^2 =  1.045E-20

      iter #  10 total cpu time :  5573.4 secs   av.it.:  18.2
      thresh= 1.022E-11 alpha_mix =  0.700 |ddv_scf|^2 =  4.144E-22

     End of self-consistent calculation

     Convergence has been achieved 


     Representation #   6 mode #   6

     Self-consistent Calculation

      iter #   1 total cpu time :  5578.7 secs   av.it.:  11.0
      thresh= 1.000E-02 alpha_mix =  0.700 |ddv_scf|^2 =  1.726E-06

      iter #   2 total cpu time :  5586.2 secs   av.it.:  17.7
      thresh= 1.314E-04 alpha_mix =  0.700 |ddv_scf|^2 =  2.549E-07

      iter #   3 total cpu time :  5593.6 secs   av.it.:  17.5
      thresh= 5.049E-05 alpha_mix =  0.700 |ddv_scf|^2 =  5.762E-09

      iter #   4 total cpu time :  5600.9 secs   av.it.:  17.0
      thresh= 7.591E-06 alpha_mix =  0.700 |ddv_scf|^2 =  2.792E-10

      iter #   5 total cpu time :  5608.2 secs   av.it.:  17.4
      thresh= 1.671E-06 alpha_mix =  0.700 |ddv_scf|^2 =  8.785E-13

      iter #   6 total cpu time :  5615.8 secs   av.it.:  18.1
      thresh= 9.373E-08 alpha_mix =  0.700 |ddv_scf|^2 =  3.752E-15

      iter #   7 total cpu time :  5623.3 secs   av.it.:  17.6
      thresh= 6.126E-09 alpha_mix =  0.700 |ddv_scf|^2 =  1.692E-16

      iter #   8 total cpu time :  5630.9 secs   av.it.:  18.0
      thresh= 1.301E-09 alpha_mix =  0.700 |ddv_scf|^2 =  9.899E-19

      iter #   9 total cpu time :  5638.4 secs   av.it.:  18.0
      thresh= 9.949E-11 alpha_mix =  0.700 |ddv_scf|^2 =  3.314E-20

      iter #  10 total cpu time :  5646.0 secs   av.it.:  18.0
      thresh= 1.820E-11 alpha_mix =  0.700 |ddv_scf|^2 =  7.332E-22

     End of self-consistent calculation

     Convergence has been achieved 


     Representation #   7 mode #   7

     Self-consistent Calculation

      iter #   1 total cpu time :  5650.5 secs   av.it.:   8.8
      thresh= 1.000E-02 alpha_mix =  0.700 |ddv_scf|^2 =  3.250E-07

      iter #   2 total cpu time :  5657.8 secs   av.it.:  17.2
      thresh= 5.701E-05 alpha_mix =  0.700 |ddv_scf|^2 =  1.913E-07

      iter #   3 total cpu time :  5664.8 secs   av.it.:  16.7
      thresh= 4.374E-05 alpha_mix =  0.700 |ddv_scf|^2 =  5.010E-09

      iter #   4 total cpu time :  5671.9 secs   av.it.:  16.7
      thresh= 7.078E-06 alpha_mix =  0.700 |ddv_scf|^2 =  8.666E-10

      iter #   5 total cpu time :  5679.1 secs   av.it.:  17.0
      thresh= 2.944E-06 alpha_mix =  0.700 |ddv_scf|^2 =  1.405E-10

      iter #   6 total cpu time :  5686.2 secs   av.it.:  16.7
      thresh= 1.186E-06 alpha_mix =  0.700 |ddv_scf|^2 =  1.167E-12

      iter #   7 total cpu time :  5693.5 secs   av.it.:  17.2
      thresh= 1.080E-07 alpha_mix =  0.700 |ddv_scf|^2 =  4.444E-14

      iter #   8 total cpu time :  5700.8 secs   av.it.:  17.3
      thresh= 2.108E-08 alpha_mix =  0.700 |ddv_scf|^2 =  2.489E-15

      iter #   9 total cpu time :  5708.4 secs   av.it.:  18.1
      thresh= 4.989E-09 alpha_mix =  0.700 |ddv_scf|^2 =  2.327E-16

      iter #  10 total cpu time :  5715.8 secs   av.it.:  17.7
      thresh= 1.526E-09 alpha_mix =  0.700 |ddv_scf|^2 =  2.152E-17

      iter #  11 total cpu time :  5723.4 secs   av.it.:  18.1
      thresh= 4.639E-10 alpha_mix =  0.700 |ddv_scf|^2 =  6.485E-18

      iter #  12 total cpu time :  5730.7 secs   av.it.:  17.5
      thresh= 2.547E-10 alpha_mix =  0.700 |ddv_scf|^2 =  6.055E-19

      iter #  13 total cpu time :  5738.0 secs   av.it.:  17.2
[...]

      iter #  19 total cpu time : 21886.6 secs   av.it.:  18.8
      thresh= 9.710E-11 alpha_mix =  0.700 |ddv_scf|^2 =  1.045E-18

      iter #  20 total cpu time : 21927.2 secs   av.it.:  17.0
      thresh= 1.022E-10 alpha_mix =  0.700 |ddv_scf|^2 =  7.946E-19

      iter #  21 total cpu time : 21966.7 secs   av.it.:  16.4
      thresh= 8.914E-11 alpha_mix =  0.700 |ddv_scf|^2 =  2.437E-20

      iter #  22 total cpu time : 22009.8 secs   av.it.:  18.2
      thresh= 1.561E-11 alpha_mix =  0.700 |ddv_scf|^2 =  6.814E-21

     End of self-consistent calculation

     Convergence has been achieved 


     Representation #   5 mode #   5

     Self-consistent Calculation

      iter #   1 total cpu time : 22041.9 secs   av.it.:  12.4
      thresh= 1.000E-02 alpha_mix =  0.700 |ddv_scf|^2 =  3.349E-05

      iter #   2 total cpu time : 22087.4 secs   av.it.:  18.4
      thresh= 5.787E-04 alpha_mix =  0.700 |ddv_scf|^2 =  4.484E-04

      iter #   3 total cpu time : 22128.4 secs   av.it.:  16.0
      thresh= 2.118E-03 alpha_mix =  0.700 |ddv_scf|^2 =  3.887E-05

      iter #   4 total cpu time : 22182.2 secs   av.it.:  16.6
      thresh= 6.234E-04 alpha_mix =  0.700 |ddv_scf|^2 =  4.800E-07

      iter #   5 total cpu time : 22225.9 secs   av.it.:  17.4
      thresh= 6.928E-05 alpha_mix =  0.700 |ddv_scf|^2 =  1.189E-08

      iter #   6 total cpu time : 22270.0 secs   av.it.:  17.6
      thresh= 1.090E-05 alpha_mix =  0.700 |ddv_scf|^2 =  9.010E-10

      iter #   7 total cpu time : 22315.2 secs   av.it.:  18.1
      thresh= 3.002E-06 alpha_mix =  0.700 |ddv_scf|^2 =  2.156E-10

      iter #   8 total cpu time : 22360.3 secs   av.it.:  18.0
      thresh= 1.468E-06 alpha_mix =  0.700 |ddv_scf|^2 =  5.630E-11

      iter #   9 total cpu time : 22404.8 secs   av.it.:  17.8
      thresh= 7.503E-07 alpha_mix =  0.700 |ddv_scf|^2 =  7.300E-11

      iter #  10 total cpu time : 22447.6 secs   av.it.:  17.0
      thresh= 8.544E-07 alpha_mix =  0.700 |ddv_scf|^2 =  2.896E-11

      iter #  11 total cpu time : 22490.4 secs   av.it.:  17.0
      thresh= 5.381E-07 alpha_mix =  0.700 |ddv_scf|^2 =  4.428E-13

      iter #  12 total cpu time : 22536.1 secs   av.it.:  18.3
      thresh= 6.655E-08 alpha_mix =  0.700 |ddv_scf|^2 =  3.504E-13

      iter #  13 total cpu time : 22578.7 secs   av.it.:  16.9
      thresh= 5.919E-08 alpha_mix =  0.700 |ddv_scf|^2 =  2.977E-13

      iter #  14 total cpu time : 22621.3 secs   av.it.:  17.0
      thresh= 5.456E-08 alpha_mix =  0.700 |ddv_scf|^2 =  1.944E-14

      iter #  15 total cpu time : 22664.9 secs   av.it.:  17.2
      thresh= 1.394E-08 alpha_mix =  0.700 |ddv_scf|^2 =  5.305E-16

      iter #  16 total cpu time : 22712.6 secs   av.it.:  19.2
      thresh= 2.303E-09 alpha_mix =  0.700 |ddv_scf|^2 =  3.304E-15

      iter #  17 total cpu time : 22754.9 secs   av.it.:  16.8
      thresh= 5.748E-09 alpha_mix =  0.700 |ddv_scf|^2 =  4.667E-17

      iter #  18 total cpu time : 22800.2 secs   av.it.:  18.1
      thresh= 6.832E-10 alpha_mix =  0.700 |ddv_scf|^2 =  2.761E-17

      iter #  19 total cpu time : 22845.3 secs   av.it.:  18.0
      thresh= 5.254E-10 alpha_mix =  0.700 |ddv_scf|^2 =  5.493E-17

      iter #  20 total cpu time : 22886.8 secs   av.it.:  16.2
      thresh= 7.411E-10 alpha_mix =  0.700 |ddv_scf|^2 =  1.878E-18

      iter #  21 total cpu time : 22931.5 secs   av.it.:  17.9
      thresh= 1.370E-10 alpha_mix =  0.700 |ddv_scf|^2 =  7.573E-19

      iter #  22 total cpu time : 22975.5 secs   av.it.:  17.5
      thresh= 8.702E-11 alpha_mix =  0.700 |ddv_scf|^2 =  2.907E-19

      iter #  23 total cpu time : 23018.9 secs   av.it.:  17.2
      thresh= 5.392E-11 alpha_mix =  0.700 |ddv_scf|^2 =  8.760E-20

      iter #  24 total cpu time : 23061.5 secs   av.it.:  16.9
      thresh= 2.960E-11 alpha_mix =  0.700 |ddv_scf|^2 =  6.094E-21

     End of self-consistent calculation

     Convergence has been achieved 


     Representation #   6 mode #   6

     Self-consistent Calculation

      iter #   1 total cpu time : 23088.6 secs   av.it.:   9.1
      thresh= 1.000E-02 alpha_mix =  0.700 |ddv_scf|^2 =  9.290E-07

      iter #   2 total cpu time : 23132.7 secs   av.it.:  17.8
      thresh= 9.638E-05 alpha_mix =  0.700 |ddv_scf|^2 =  1.090E-06

      iter #   3 total cpu time : 23174.6 secs   av.it.:  16.7
      thresh= 1.044E-04 alpha_mix =  0.700 |ddv_scf|^2 =  2.611E-08

      iter #   4 total cpu time : 23216.7 secs   av.it.:  16.9
      thresh= 1.616E-05 alpha_mix =  0.700 |ddv_scf|^2 =  3.842E-10

      iter #   5 total cpu time : 23260.7 secs   av.it.:  17.7
      thresh= 1.960E-06 alpha_mix =  0.700 |ddv_scf|^2 =  2.774E-11

      iter #   6 total cpu time : 23305.2 secs   av.it.:  17.9
      thresh= 5.267E-07 alpha_mix =  0.700 |ddv_scf|^2 =  1.481E-12

      iter #   7 total cpu time : 23348.9 secs   av.it.:  17.5
      thresh= 1.217E-07 alpha_mix =  0.700 |ddv_scf|^2 =  5.742E-14

      iter #   8 total cpu time : 23393.9 secs   av.it.:  18.0
      thresh= 2.396E-08 alpha_mix =  0.700 |ddv_scf|^2 =  3.136E-15

      iter #   9 total cpu time : 23439.1 secs   av.it.:  18.2
      thresh= 5.600E-09 alpha_mix =  0.700 |ddv_scf|^2 =  1.190E-16

      iter #  10 total cpu time : 23484.3 secs   av.it.:  18.2
      thresh= 1.091E-09 alpha_mix =  0.700 |ddv_scf|^2 =  2.065E-17

      iter #  11 total cpu time : 23529.8 secs   av.it.:  18.2
      thresh= 4.545E-10 alpha_mix =  0.700 |ddv_scf|^2 =  5.516E-18

      iter #  12 total cpu time : 23573.6 secs   av.it.:  17.6
      thresh= 2.349E-10 alpha_mix =  0.700 |ddv_scf|^2 =  2.751E-19

      iter #  13 total cpu time : 23619.3 secs   av.it.:  18.4
      thresh= 5.245E-11 alpha_mix =  0.700 |ddv_scf|^2 =  7.034E-20

      iter #  14 total cpu time : 23663.6 secs   av.it.:  17.8
      thresh= 2.652E-11 alpha_mix =  0.700 |ddv_scf|^2 =  1.170E-20

      iter #  15 total cpu time : 23707.7 secs   av.it.:  17.7
      thresh= 1.082E-11 alpha_mix =  0.700 |ddv_scf|^2 =  4.712E-22

     End of self-consistent calculation

     Convergence has been achieved 


     Representation #   7 mode #   7

     Self-consistent Calculation

      iter #   1 total cpu time : 23733.5 secs   av.it.:   8.9
      thresh= 1.000E-02 alpha_mix =  0.700 |ddv_scf|^2 =  1.706E-07

      iter #   2 total cpu time : 23777.9 secs   av.it.:  17.9
      thresh= 4.130E-05 alpha_mix =  0.700 |ddv_scf|^2 =  4.935E-08

      iter #   3 total cpu time : 23821.4 secs   av.it.:  17.3
      thresh= 2.222E-05 alpha_mix =  0.700 |ddv_scf|^2 =  4.491E-09

      iter #   4 total cpu time : 23864.1 secs   av.it.:  17.0
      thresh= 6.701E-06 alpha_mix =  0.700 |ddv_scf|^2 =  1.054E-09

      iter #   5 total cpu time : 23906.9 secs   av.it.:  17.0
      thresh= 3.247E-06 alpha_mix =  0.700 |ddv_scf|^2 =  1.350E-10

      iter #   6 total cpu time : 23950.8 secs   av.it.:  17.3
      thresh= 1.162E-06 alpha_mix =  0.700 |ddv_scf|^2 =  9.096E-13

      iter #   7 total cpu time : 23995.3 secs   av.it.:  17.9
      thresh= 9.537E-08 alpha_mix =  0.700 |ddv_scf|^2 =  4.795E-14

      iter #   8 total cpu time : 24040.8 secs   av.it.:  18.3
      thresh= 2.190E-08 alpha_mix =  0.700 |ddv_scf|^2 =  7.326E-15

      iter #   9 total cpu time : 24085.8 secs   av.it.:  18.1
      thresh= 8.559E-09 alpha_mix =  0.700 |ddv_scf|^2 =  1.420E-16

      iter #  10 total cpu time : 24132.1 secs   av.it.:  18.6
      thresh= 1.192E-09 alpha_mix =  0.700 |ddv_scf|^2 =  3.454E-17

      iter #  11 total cpu time : 24176.1 secs   av.it.:  17.6
      thresh= 5.877E-10 alpha_mix =  0.700 |ddv_scf|^2 =  5.961E-18

      iter #  12 total cpu time : 24220.2 secs   av.it.:  17.7
      thresh= 2.441E-10 alpha_mix =  0.700 |ddv_scf|^2 =  3.722E-19

      iter #  13 total cpu time : 24265.3 secs   av.it.:  18.1
      thresh= 6.101E-11 alpha_mix =  0.700 |ddv_scf|^2 =  2.558E-20

      iter #  14 total cpu time : 24310.6 secs   av.it.:  18.1
      thresh= 1.599E-11 alpha_mix =  0.700 |ddv_scf|^2 =  3.240E-21

     End of self-consistent calculation

     Convergence has been achieved 


     Representation #   8 mode #   8

     Self-consistent Calculation

      iter #   1 total cpu time : 24342.4 secs   av.it.:  11.7
      thresh= 1.000E-02 alpha_mix =  0.700 |ddv_scf|^2 =  5.824E-06

      iter #   2 total cpu time : 24386.8 secs   av.it.:  17.9
      thresh= 2.413E-04 alpha_mix =  0.700 |ddv_scf|^2 =  6.829E-06

      iter #   3 total cpu time : 24428.8 secs   av.it.:  16.8
      thresh= 2.613E-04 alpha_mix =  0.700 |ddv_scf|^2 =  1.925E-07

      iter #   4 total cpu time : 24472.2 secs   av.it.:  17.3
      thresh= 4.388E-05 alpha_mix =  0.700 |ddv_scf|^2 =  2.224E-08

      iter #   5 total cpu time : 24515.4 secs   av.it.:  17.2
      thresh= 1.491E-05 alpha_mix =  0.700 |ddv_scf|^2 =  7.538E-10

      iter #   6 total cpu time : 24560.3 secs   av.it.:  18.0
      thresh= 2.746E-06 alpha_mix =  0.700 |ddv_scf|^2 =  1.938E-11

      iter #   7 total cpu time : 24605.3 secs   av.it.:  18.0
      thresh= 4.403E-07 alpha_mix =  0.700 |ddv_scf|^2 =  7.312E-13

      iter #   8 total cpu time : 24651.1 secs   av.it.:  18.6
      thresh= 8.551E-08 alpha_mix =  0.700 |ddv_scf|^2 =  6.914E-14

      iter #   9 total cpu time : 24696.4 secs   av.it.:  18.3
      thresh= 2.629E-08 alpha_mix =  0.700 |ddv_scf|^2 =  2.552E-14

      iter #  10 total cpu time : 24740.0 secs   av.it.:  17.4
      thresh= 1.597E-08 alpha_mix =  0.700 |ddv_scf|^2 =  1.147E-15

      iter #  11 total cpu time : 24784.6 secs   av.it.:  17.9
      thresh= 3.387E-09 alpha_mix =  0.700 |ddv_scf|^2 =  1.129E-16

      iter #  12 total cpu time : 24829.9 secs   av.it.:  18.1
      thresh= 1.062E-09 alpha_mix =  0.700 |ddv_scf|^2 =  1.445E-17

      iter #  13 total cpu time : 24874.9 secs   av.it.:  18.1
      thresh= 3.802E-10 alpha_mix =  0.700 |ddv_scf|^2 =  5.060E-19

      iter #  14 total cpu time : 24920.3 secs   av.it.:  18.2
      thresh= 7.113E-11 alpha_mix =  0.700 |ddv_scf|^2 =  5.574E-20

      iter #  15 total cpu time : 24965.4 secs   av.it.:  18.0
      thresh= 2.361E-11 alpha_mix =  0.700 |ddv_scf|^2 =  7.235E-21

     End of self-consistent calculation

     Convergence has been achieved 


     Representation #   9 mode #   9

     Self-consistent Calculation

      iter #   1 total cpu time : 24991.9 secs   av.it.:   9.0
      thresh= 1.000E-02 alpha_mix =  0.700 |ddv_scf|^2 =  5.032E-07

      iter #   2 total cpu time : 25035.9 secs   av.it.:  17.8
      thresh= 7.093E-05 alpha_mix =  0.700 |ddv_scf|^2 =  4.719E-07

      iter #   3 total cpu time : 25078.2 secs   av.it.:  16.9
      thresh= 6.869E-05 alpha_mix =  0.700 |ddv_scf|^2 =  2.181E-08

      iter #   4 total cpu time : 25120.2 secs   av.it.:  16.8
      thresh= 1.477E-05 alpha_mix =  0.700 |ddv_scf|^2 =  3.693E-10

      iter #   5 total cpu time : 25164.4 secs   av.it.:  17.8
      thresh= 1.922E-06 alpha_mix =  0.700 |ddv_scf|^2 =  5.465E-11

      iter #   6 total cpu time : 25208.7 secs   av.it.:  17.8
      thresh= 7.393E-07 alpha_mix =  0.700 |ddv_scf|^2 =  1.549E-12

      iter #   7 total cpu time : 25252.8 secs   av.it.:  17.8
      thresh= 1.245E-07 alpha_mix =  0.700 |ddv_scf|^2 =  5.653E-14

      iter #   8 total cpu time : 25298.0 secs   av.it.:  18.1
      thresh= 2.378E-08 alpha_mix =  0.700 |ddv_scf|^2 =  3.694E-15

      iter #   9 total cpu time : 25343.1 secs   av.it.:  18.1
      thresh= 6.078E-09 alpha_mix =  0.700 |ddv_scf|^2 =  1.661E-16

      iter #  10 total cpu time : 25387.7 secs   av.it.:  18.0
      thresh= 1.289E-09 alpha_mix =  0.700 |ddv_scf|^2 =  7.676E-18

      iter #  11 total cpu time : 25433.1 secs   av.it.:  18.2
      thresh= 2.770E-10 alpha_mix =  0.700 |ddv_scf|^2 =  1.574E-18

      iter #  12 total cpu time : 25478.6 secs   av.it.:  18.3
      thresh= 1.255E-10 alpha_mix =  0.700 |ddv_scf|^2 =  6.474E-19

      iter #  13 total cpu time : 25521.9 secs   av.it.:  17.2
      thresh= 8.046E-11 alpha_mix =  0.700 |ddv_scf|^2 =  5.119E-20

      iter #  14 total cpu time : 25566.2 secs   av.it.:  17.8
      thresh= 2.263E-11 alpha_mix =  0.700 |ddv_scf|^2 =  2.556E-21

     End of self-consistent calculation

     Convergence has been achieved 
 
     Number of q in the star =    2
     List of q in the star:
          1  -0.495998429   0.000000000   0.000000000
          2   0.495998429   0.000000000   0.000000000

     Diagonalizing the dynamical matrix

     q = (   -0.495998429   0.000000000   0.000000000 ) 

 **************************************************************************
     freq (    1) =       4.730125 [THz] =     157.779979 [cm-1]
     freq (    2) =       5.392703 [THz] =     179.881224 [cm-1]
     freq (    3) =       6.295610 [THz] =     209.998949 [cm-1]
     freq (    4) =       9.296462 [THz] =     310.096610 [cm-1]
     freq (    5) =       9.677170 [THz] =     322.795642 [cm-1]
     freq (    6) =      10.023545 [THz] =     334.349479 [cm-1]
     freq (    7) =      10.932228 [THz] =     364.659867 [cm-1]
     freq (    8) =      11.084465 [THz] =     369.737950 [cm-1]
     freq (    9) =      11.663681 [THz] =     389.058517 [cm-1]
 **************************************************************************

     Mode symmetry, C_s (m)     point group:

     freq (   1-   1) =        157.8  [cm-1]   --> A''                
     freq (   2-   2) =        179.9  [cm-1]   --> A'                 
     freq (   3-   3) =        210.0  [cm-1]   --> A'                 
     freq (   4-   4) =        310.1  [cm-1]   --> A''                
     freq (   5-   5) =        322.8  [cm-1]   --> A''                
     freq (   6-   6) =        334.3  [cm-1]   --> A'                 
     freq (   7-   7) =        364.7  [cm-1]   --> A'                 
     freq (   8-   8) =        369.7  [cm-1]   --> A''                
     freq (   9-   9) =        389.1  [cm-1]   --> A'                 
 
     init_run     :      2.68s CPU      2.78s WALL (       6 calls)
     electrons    :    551.40s CPU    563.26s WALL (       6 calls)

     Called by init_run:
     wfcinit      :      0.00s CPU      0.01s WALL (       6 calls)
     potinit      :      0.54s CPU      0.57s WALL (       6 calls)
     hinit0       :      1.31s CPU      1.34s WALL (       6 calls)

     Called by electrons:
     c_bands      :    551.40s CPU    563.26s WALL (       6 calls)
     v_of_rho     :      0.10s CPU      0.11s WALL (       7 calls)
     newd         :      0.22s CPU      0.24s WALL (       7 calls)
     PAW_pot      :      0.44s CPU      0.47s WALL (       7 calls)

     Called by c_bands:
     init_us_2    :     40.74s CPU     42.63s WALL (  267051 calls)
     cegterg      :    519.05s CPU    529.77s WALL (    4549 calls)

     Called by *egterg:
     cdiaghg      :    250.73s CPU    252.18s WALL (   61719 calls)
     h_psi        :  18182.55s CPU  19106.23s WALL ( 6400675 calls)
     s_psi        :    485.94s CPU    510.88s WALL (12981800 calls)
     g_psi        :      1.30s CPU      1.32s WALL (   58923 calls)

     Called by h_psi:
     h_psi:calbec :    967.56s CPU   1025.63s WALL ( 6400675 calls)
     vloc_psi     :  16843.71s CPU  17691.68s WALL ( 6400675 calls)
     add_vuspsi   :    266.07s CPU    279.44s WALL ( 6400675 calls)

     General routines
     calbec       :   1781.69s CPU   1896.28s WALL (13355317 calls)
     fft          :     22.85s CPU     24.69s WALL (   19295 calls)
     ffts         :      3.56s CPU      3.82s WALL (   17131 calls)
     fftw         :  17791.80s CPU  18723.03s WALL (******** calls)
     interpolate  :      2.53s CPU      2.86s WALL (    2281 calls)
     davcio       :     34.56s CPU     40.08s WALL ( 1258638 calls)
 
     Parallel routines
     fft_scatt_xy :   1203.54s CPU   1254.57s WALL (******** calls)
     fft_scatt_yz :   8570.87s CPU   9066.47s WALL (******** calls)
 
     PHONON       :      6h44m CPU      7h 6m WALL

     INITIALIZATION: 
     phq_setup    :      0.27s CPU      0.30s WALL (       7 calls)
     phq_init     :     54.68s CPU     56.48s WALL (       7 calls)
 
     phq_init     :     54.68s CPU     56.48s WALL (       7 calls)
     set_drhoc    :      2.81s CPU      2.82s WALL (      21 calls)
     init_vloc    :      0.58s CPU      0.58s WALL (       7 calls)
     init_us_1    :      0.41s CPU      0.44s WALL (       7 calls)
     newd         :      0.22s CPU      0.24s WALL (       7 calls)
     dvanqq       :      2.63s CPU      2.64s WALL (       7 calls)
     drho         :     41.95s CPU     43.51s WALL (       7 calls)
 
     DYNAMICAL MATRIX:
     dynmat0      :      6.81s CPU      6.93s WALL (       7 calls)
     phqscf       :  23195.15s CPU  24466.80s WALL (       7 calls)
     dynmatrix    :      0.01s CPU      0.02s WALL (       7 calls)
 
     phqscf       :  23195.15s CPU  24466.80s WALL (       7 calls)
     solve_linter :  23173.49s CPU  24443.70s WALL (      63 calls)
     drhodv       :     12.06s CPU     12.75s WALL (      63 calls)
 
     dynmat0      :      6.81s CPU      6.93s WALL (       7 calls)
     dynmat_us    :      4.05s CPU      4.14s WALL (       7 calls)
     d2ionq       :      0.06s CPU      0.06s WALL (       7 calls)
     dynmatcc     :      2.27s CPU      2.29s WALL (       7 calls)
 
     dynmat_us    :      4.05s CPU      4.14s WALL (       7 calls)
     addusdynmat  :      0.00s CPU      0.00s WALL (       7 calls)
 
     phqscf       :  23195.15s CPU  24466.80s WALL (       7 calls)
     solve_linter :  23173.49s CPU  24443.70s WALL (      63 calls)
 
     solve_linter :  23173.49s CPU  24443.70s WALL (      63 calls)
     dvqpsi_us    :     75.12s CPU     78.21s WALL (   14220 calls)
     ortho        :     94.25s CPU     99.94s WALL (  246445 calls)
     cgsolve      :  20866.04s CPU  21978.89s WALL (  246445 calls)
     incdrhoscf   :   1058.35s CPU   1121.80s WALL (  246445 calls)
     addusddens   :     57.90s CPU     58.59s WALL (    1113 calls)
     vpsifft      :    919.99s CPU    984.62s WALL (  228130 calls)
     dv_of_drho   :     14.22s CPU     15.53s WALL (    1104 calls)
     mix_pot      :      1.84s CPU      4.28s WALL (    1067 calls)
     psymdvscf    :     74.26s CPU     77.58s WALL (    1050 calls)
     newdq        :     48.61s CPU     48.87s WALL (    1067 calls)
     adddvscf     :     30.16s CPU     31.78s WALL (  232498 calls)
     drhodvus     :      0.05s CPU      0.09s WALL (      63 calls)
 
     dvqpsi_us    :     75.12s CPU     78.21s WALL (   14220 calls)
     dvqpsi_us_on :     17.24s CPU     17.61s WALL (   14220 calls)
 
     cgsolve      :  20866.04s CPU  21978.89s WALL (  246445 calls)
     ch_psi       :  20100.89s CPU  21144.87s WALL ( 6334407 calls)
 
     ch_psi       :  20100.89s CPU  21144.87s WALL ( 6334407 calls)
     h_psi        :  18182.55s CPU  19106.23s WALL ( 6400675 calls)
     last         :   1740.34s CPU   1850.88s WALL ( 6334407 calls)
 
     h_psi        :  18182.55s CPU  19106.23s WALL ( 6400675 calls)
     add_vuspsi   :    266.07s CPU    279.44s WALL ( 6400675 calls)
 
     incdrhoscf   :   1058.35s CPU   1121.80s WALL (  246445 calls)
     addusdbec    :     54.98s CPU     57.78s WALL (  259846 calls)
 
     drhodvus     :      0.05s CPU      0.09s WALL (      63 calls)
 
      General routines
     calbec       :   1781.69s CPU   1896.28s WALL (13355317 calls)
     fft          :     22.85s CPU     24.69s WALL (   19295 calls)
     ffts         :      3.56s CPU      3.82s WALL (   17131 calls)
     fftw         :  17791.80s CPU  18723.03s WALL (******** calls)
     davcio       :     34.56s CPU     40.08s WALL ( 1258638 calls)
     write_rec    :      0.37s CPU     15.56s WALL (    1130 calls)
 
 
     PHONON       :      6h44m CPU      7h 6m WALL

 
   This run was terminated on:  22:48:28  15Nov2021            

=------------------------------------------------------------------------------=
   JOB DONE.
=------------------------------------------------------------------------------=
