
     Program Q2R v.6.7MaX starts on 15Nov2021 at 22:48:29 

     This program is part of the open-source Quantum ESPRESSO suite
     for quantum simulation of materials; please cite
         "P. Giannozzi et al., J. Phys.:Condens. Matter 21 395502 (2009);
         "P. Giannozzi et al., J. Phys.:Condens. Matter 29 465901 (2017);
          URL http://www.quantum-espresso.org", 
     in publications or presentations arising from this work. More details at
     http://www.quantum-espresso.org/quote

     Parallel version (MPI), running on     1 processors

     MPI processes distributed on     1 nodes

     reading grid info from file MoS2.dyn0    
  reading force constants from file MoS2.dyn1
 macroscopic fields = T
   8.71000   0.00000   0.00000
   0.00000   8.70547   0.00000
   0.00000   0.00000   1.82720
  na=            1
  -1.00556   0.00000   0.00000
   0.00000  -0.99708   0.00000
   0.00000   0.00000  -0.11262
  na=            2
   0.50544   0.00000   0.00000
   0.00000   0.50458  -0.00023
   0.00000   0.00001   0.05469
  na=            3
   0.50544   0.00000   0.00000
   0.00000   0.50458   0.00023
   0.00000  -0.00001   0.05469
  nqs=            1
 q=   0.00000000  0.00000000  0.00000000
  reading force constants from file MoS2.dyn2
  nqs=            2
 q=   0.00000000  0.28640021  0.00000000
 q=   0.00000000 -0.28640021  0.00000000
  reading force constants from file MoS2.dyn3
  nqs=            1
 q=   0.00000000 -0.57280042  0.00000000
  reading force constants from file MoS2.dyn4
  nqs=            4
 q=   0.24799921  0.14320011  0.00000000
 q=  -0.24799921 -0.14320011  0.00000000
 q=  -0.24799921  0.14320011  0.00000000
 q=   0.24799921 -0.14320011  0.00000000
  reading force constants from file MoS2.dyn5
  nqs=            4
 q=   0.24799921  0.42960032  0.00000000
 q=  -0.24799921 -0.42960032  0.00000000
 q=  -0.24799921  0.42960032  0.00000000
 q=   0.24799921 -0.42960032  0.00000000
  reading force constants from file MoS2.dyn6
  nqs=            2
 q=  -0.49599843 -0.28640021  0.00000000
 q=   0.49599843 -0.28640021  0.00000000
  reading force constants from file MoS2.dyn7
  nqs=            2
 q=  -0.49599843  0.00000000  0.00000000
 q=   0.49599843  0.00000000  0.00000000

      q-space grid ok, #points =   16

      fft-check warning: sum of imaginary terms = 3.569810E-11
 
     Q2R          :      0.01s CPU      0.01s WALL

 
   This run was terminated on:  22:48:29  15Nov2021            

=------------------------------------------------------------------------------=
   JOB DONE.
=------------------------------------------------------------------------------=
